LAMMPS input file for bananas

648 atoms

2 atom types

0 53.5546360066 xlo xhi
0 53.5546360066 ylo yhi
0 53.5546360066 zlo zhi

Masses

 1 1
 2 1

Atoms

1 1 1 41.2639330839 35.5919178493 38.6684271496
2 1 1 40.3832763551 34.4526552597 44.0017671481
3 1 2 40.9464361119 35.9960078222 38.4603681324
4 1 2 40.1782387347 36.6266405016 38.1677502513
5 1 2 39.2444937729 37.0557348497 38.0356578673
6 1 2 38.2295592134 37.2565145166 38.0908427979
7 1 2 37.225193258 37.2230134255 38.3429870339
8 1 2 36.3221908084 36.9706195643 38.7838202518
9 1 2 35.6021077536 36.5346724119 39.3878736317
10 1 2 35.1298273688 35.9672418394 40.1148012723
11 1 2 34.9476463781 35.3323820799 40.9130576118
12 1 2 35.0714197211 34.7002933566 41.724595668
13 1 2 35.4891154177 34.1409233205 42.4901578659
14 1 2 36.161911251 33.7175915084 43.1546772071
15 1 2 37.0277333081 33.4812179366 43.6722964794
16 1 2 38.0069138521 33.4656818774 44.0105480193
17 1 2 39.0094528228 33.6847338544 44.1533130528
18 1 2 39.9432211019 34.1307423183 44.1022908784
19 2 1 19.094755758 51.4440206039 28.189730079
20 2 1 17.0347572464 49.6976656191 33.008925184
21 2 2 18.7287459286 51.6925134558 27.8555599197
22 2 2 17.9156080582 51.9650622827 27.2742046479
23 2 2 16.9914319542 51.9755709898 26.805975957
24 2 2 16.0298233689 51.7330066122 26.5061068815
25 2 2 15.1077999252 51.2694031201 26.4144849268
26 2 2 14.2987711664 50.636941608 26.5520164302
27 2 2 13.6658474721 49.9031941281 26.9187210034
28 2 2 13.2560877159 49.1449646773 27.4937297454
29 2 2 13.0962099751 48.4412887192 28.2371873872
30 2 2 13.1901562491 47.866229312 29.0938849925
31 2 2 13.5187331566 47.4821264591 29.9982921052
32 2 2 14.0413613615 47.3339149846 30.8805296749
33 2 2 14.6997742702 47.4450288437 31.6727393461
34 2 2 15.4233288766 47.8152651806 32.3152685654
35 2 2 16.1354446827 48.4208028183 32.7621077525
36 2 2 16.7605838069 49.216373495 32.9850839507
37 3 1 3.135897394 30.8076469601 25.3158557148
38 3 1 1.5399874263 32.6005210059 30.2914627222
39 3 2 3.36366876709 30.3021922143 25.3116976447
40 3 2 3.92182941206 29.445200287 25.4774430582
41 3 2 4.59779226129 28.7626742596 25.8656214446
42 3 2 5.31917159373 28.3075868019 26.4538027736
43 3 2 6.00944209726 28.1121801659 27.2013272813
44 3 2 6.5949139464 28.1850273905 28.0530114992
45 3 2 7.01144943289 28.5102508927 28.9441780792
46 3 2 7.2103089464 29.0489696659 29.8065509617
47 3 2 7.16259345976 29.7428431803 30.5744785556
48 3 2 6.86187859799 30.5193889662 31.1909177055
49 3 2 6.32480020298 31.2985891973 31.6126330225
50 3 2 5.58953802092 32.0001841017 31.814137675
51 3 2 4.71233572049 32.5509874255 31.7900164447
52 3 2 3.76237443277 32.8915571645 31.5554193094
53 3 2 2.8154670761 32.9816135438 31.1446805633
54 3 2 1.94714821113 32.8037104117 30.6081893373
55 4 1 49.4936958608 30.3262182265 14.0279719409
56 4 1 52.6917529339 32.6599568452 17.8807743078
57 4 2 49.3508018693 30.6603517018 13.6092623567
58 4 2 49.0211787009 31.4309319377 13.0001608232
59 4 2 48.6505297361 32.3375509176 12.6623570617
60 4 2 48.2887781784 33.3076623891 12.6240222914
61 4 2 47.9850362566 34.2629329287 12.8860319331
62 4 2 47.7831287763 35.1263818242 13.4218858173
63 4 2 47.7175986058 35.8293976611 14.180123604
64 4 2 47.8105581861 36.317992069 15.0890152544
65 4 2 48.0696740412 36.5577206179 16.0630990329
66 4 2 48.4874679945 36.5368223358 17.0109711158
67 4 2 49.0419987851 36.2672916893 17.8436168052
68 4 2 49.6988619548 35.783785321 18.4825239811
69 4 2 50.4143257223 35.1404631883 18.8668392711
70 4 2 51.1393170188 34.4060520285 18.9589146728
71 4 2 51.8238943664 33.6575811002 18.7477390685
72 4 2 52.4217999108 32.9733611725 18.2499418592
73 5 1 43.678044243 50.5045668478 41.839725489
74 5 1 43.3827149311 46.8333435298 45.957114347
75 5 2 43.3742676595 50.9625501348 41.9128875295
76 5 2 42.6348692088 51.6646651627 42.0966657378
77 5 2 41.7342202865 52.113924278 42.3425270346
78 5 2 40.7566455304 52.2725739894 42.646875316
79 5 2 39.7934811622 52.1293490758 43.0007835461
80 5 2 38.9347499357 51.7004993814 43.3908074317
81 5 2 38.2609558024 51.028308686 43.8002108344
82 5 2 37.8357461924 50.177240651 44.2104912245
83 5 2 37.7001107209 49.2280631292 44.6030661373
84 5 2 37.8686450941 48.270486391 44.9609669149
85 5 2 38.3282207502 47.3949862729 45.2703853544
86 5 2 39.0391814921 46.6845575468 45.5219322883
87 5 2 39.9389580439 46.2071491685 45.711493382
88 5 2 40.9477710736 46.0094709119 45.8406041449
89 5 2 41.9759028656 46.1127358979 45.9163099721
90 5 2 42.9318748505 46.5107270751 45.9505239762
91 6 1 3.794093654 42.0746486658 12.137052678
92 6 1 1.76132326303 41.1447223624 7.08521413453
93 6 2 4.27401055841 42.3520192373 12.1483185089
94 6 2 5.23734043922 42.7083231169 12.012329181
95 6 2 6.20738446937 42.8367893907 11.6717987018
96 6 2 7.09323150647 42.7383944372 11.1435530476
97 6 2 7.81164473903 42.4347924297 10.4615279312
98 6 2 8.29464849931 41.9663416157 9.67367565212
99 6 2 8.49572406379 41.3884257709 8.83759437323
100 6 2 8.39404971045 40.7664061161 8.01527820162
101 6 2 7.99639856313 40.1696638164 7.26746659171
102 6 2 7.33652123933 39.6652760735 6.64810810624
103 6 2 6.47206957169 39.3119022182 6.19944314898
104 6 2 5.4793417975 39.154437069 5.94815386484
105 6 2 4.44632817833 39.2199188894 5.90293213366
106 6 2 3.46469092282 39.5150649227 6.05368732859
107 6 2 2.62140942139 40.0256591329 6.37246604977
108 6 2 1.99085230728 40.7178479584 6.81600000201
109 7 1 40.1420452911 19.1694234024 7.73312586602
110 7 1 34.9273367363 20.9017036973 7.16390646223
111 7 2 40.4497488408 19.1995667527 7.2729177696
112 7 2 40.8426882341 19.1428540651 6.31592648677
113 7 2 40.9629776676 18.9581199726 5.30357586646
114 7 2 40.7934905587 18.6786731987 4.32040058623
115 7 2 40.3435126823 18.3464552748 3.44827606934
116 7 2 39.647895797 18.0082176815 2.7589557588
117 7 2 38.7638810005 17.7112605761 2.30753098281
118 7 2 37.7658813567 17.49912151 2.12740952741
119 7 2 36.7386993434 17.4076070967 2.22727060612
120 7 2 35.7697973338 17.4615293353 2.59027377281
121 7 2 34.941325634 17.6724440626 3.17559388332
122 7 2 34.3226347033 18.0375976697 3.92214219828
123 7 2 33.963954044 18.5401780861 4.75413445841
124 7 2 33.8918139176 19.1508471549 5.58799841719
125 7 2 34.1066271815 19.8304147274 6.33999122779
126 7 2 34.5826516588 20.5334107405 6.93383237969
127 8 1 33.0881279224 16.0095133053 12.8361161775
128 8 1 33.8099891177 21.1419374772 14.7479555004
129 8 2 33.3227024233 15.6111137356 13.1421131945
130 8 2 33.9516884929 15.003473167 13.6976304983
131 8 2 34.7745879588 14.6273929847 14.2024573763
132 8 2 35.7133341037 14.5236191137 14.6284112122
133 8 2 36.6793010952 14.7080774866 14.9544984568
134 8 2 37.5813819936 15.1704224374 15.1688281338
135 8 2 38.3342929058 15.8749796811 15.2696956702
136 8 2 38.8663463841 16.7639979297 15.2657382643
137 8 2 39.1259855457 17.7629127676 15.1751476273
138 8 2 39.0864833448 18.7871429988 15.0240118582
139 8 2 38.748378671 19.749799997 14.8439375827
140 8 2 38.1394272314 20.5696073712 14.6691690942
141 8 2 37.3120716919 21.1783090921 14.5334670777
142 8 2 36.3386616682 21.5268908464 14.4670314138
143 8 2 35.3048592519 21.5900475605 14.4937485399
144 8 2 34.30183114 21.3684898903 14.629014266
145 9 1 13.6057159174 4.1891745448 31.4297672265
146 9 1 12.0813790722 9.27797881929 32.9458342763
147 9 2 13.2409166128 3.78993895988 31.5518901282
148 9 2 12.5653669038 3.14084477012 31.9943371134
149 9 2 11.9379325911 2.67692745379 32.6759212374
150 9 2 11.3990808959 2.44927990769 33.5310618436
151 9 2 10.9812049704 2.48745967056 34.4783590662
152 9 2 10.7056713489 2.79679483242 35.4280132096
153 9 2 10.580872445 3.3578983934 36.2900097518
154 9 2 10.6014616058 4.12843533698 36.9823239263
155 9 2 10.7488404448 5.04698135358 37.4383970612
156 9 2 10.9928540352 6.0386215022 37.6132032239
157 9 2 11.2945394509 7.02177850708 37.4873532145
158 9 2 11.6096771333 7.91564830832 37.0688618397
159 9 2 11.8928213852 8.64756513601 36.3924173844
160 9 2 12.1014426254 9.15962480091 35.5162198674
161 9 2 12.1998038461 9.41396250654 34.516676265
162 9 2 12.1622179452 9.39620412417 33.4814362199
163 10 1 6.50044954902 16.7924287075 35.2400021036
164 10 1 4.42674881397 13.7908446367 39.3882848072
165 10 2 6.6348468248 17.313561205 35.3731932456
166 10 2 6.66860164069 18.2921509452 35.7118268883
167 10 2 6.42404400961 19.1964350902 36.1544460942
168 10 2 5.93066257193 19.9417647988 36.6783815802
169 10 2 5.24062559293 20.4579795021 37.2535523017
170 10 2 4.42402596486 20.6958018513 37.8452072593
171 10 2 3.5624924272 20.6313292168 38.4170929595
172 10 2 2.74174932514 20.2682123486 38.9347578237
173 10 2 2.04380306471 19.6373226206 39.3686923577
174 10 2 1.53946744805 18.793938187 39.6970188632
175 10 2 1.28190918457 17.8127055267 39.9074855311
176 10 2 1.30180188753 16.7808356157 39.9985831618
177 10 2 1.60453025615 15.7901548803 39.9796827242
178 10 2 2.16969927469 14.9287354635 39.8701812173
179 10 2 2.9529931636 14.2728676845 39.6977336854
180 10 2 3.89021464441 13.8801063803 39.4957325345
181 11 1 20.6933800391 19.1261419228 8.98549066595
182 11 1 15.3173855549 19.1544581173 7.71432090562
183 11 2 20.8087674769 19.2421518053 9.515216099
184 11 2 20.883848701 19.6437525929 10.4673345939
185 11 2 20.7587276215 20.2450088658 11.3017719019
186 11 2 20.4304911498 20.9821605315 11.9516320804
187 11 2 19.9147396228 21.7790609955 12.3668428991
188 11 2 19.2441648734 22.5541177204 12.5187197894
189 11 2 18.4655704572 23.2277291669 12.4025803667
190 11 2 17.635605634 23.7295402617 12.0381712168
191 11 2 16.8156019388 24.0048550746 11.4678680476
192 11 2 16.0659829763 24.019622206 10.7528132566
193 11 2 15.4407569711 23.7635384809 9.9673429648
194 11 2 14.9825940621 23.2509880564 9.19221147772
195 11 2 14.7189370335 22.5197313433 8.5072307466
196 11 2 14.6594999785 21.6274632463 7.98399572219
197 11 2 14.7953828854 20.6465544274 7.67935866636
198 11 2 15.0998828501 19.6574549134 7.63024722044
199 12 1 20.9966774097 8.15321384669 15.5696311162
200 12 1 16.6150230066 4.80113233489 15.8571120577
201 12 2 21.0355261319 8.52268456366 15.9811693941
202 12 2 20.8844620835 9.25935183939 16.6938761987
203 12 2 20.4506971772 9.98807837141 17.289069998
204 12 2 19.7677924779 10.6321334823 17.727572218
205 12 2 18.8920174771 11.1225040685 17.9844863035
206 12 2 17.8972212785 11.4041849599 18.0514669724
207 12 2 16.8681014502 11.4411924944 17.9374808657
208 12 2 15.8924840671 11.2198443324 17.6679892625
209 12 2 15.0533185994 10.7500065657 17.2826273522
210 12 2 14.4211172898 10.064194449 16.831591593
211 12 2 14.0475281513 9.21460872225 16.3710644391
212 12 2 13.9606273885 8.26837765182 15.9580934595
213 12 2 14.162360327 7.30143846906 15.6453916055
214 12 2 14.6283641019 6.39161589434 15.4765325652
215 12 2 15.310188268 5.6115286219 15.4819791391
216 12 2 16.139710928 5.02197031991 15.6763066364
217 13 1 31.292768454 8.38102154867 16.4144417857
218 13 1 31.1795778319 9.33438931768 21.8546870781
219 13 2 31.030919058 8.75962441305 16.1054493054
220 13 2 30.3655459605 9.42995633102 15.6795575679
221 13 2 29.529221633 10.0120343388 15.4919494037
222 13 2 28.6025967774 10.469080327 15.5689257169
223 13 2 27.6745527473 10.7757125208 15.9126712438
224 13 2 26.8341002505 10.9202589604 16.5010554197
225 13 2 26.1622662603 10.9058213698 17.2896495211
226 13 2 25.7247086241 10.7499924418 18.2157762249
227 13 2 25.5657315256 10.4832523122 19.2042224786
228 13 2 25.7042472772 10.1461903762 20.1740949697
229 13 2 26.1320525131 9.78580567355 21.0461933343
230 13 2 26.8145759041 9.45122305213 21.7502290587
231 13 2 27.6940292422 9.18921556888 22.2312320899
232 13 2 28.6946746809 9.03994125095 22.4545612087
233 13 2 29.7297280376 9.03328279876 22.4090614841
234 13 2 30.7092689401 9.18612385774 22.108081016
235 14 1 25.8647818021 8.23842379228 28.2835367765
236 14 1 22.5222692253 3.89912441171 27.5651485657
237 14 2 26.3251673942 8.23230272154 27.9746853121
238 14 2 27.207974102 8.00296024682 27.4832543838
239 14 2 28.0435298116 7.50359755133 27.128383188
240 14 2 28.7491629535 6.77249309874 26.9258537835
241 14 2 29.2540440526 5.86904799447 26.8775626819
242 14 2 29.5056416462 4.86837173371 26.9713479858
243 14 2 29.474510386 3.8544361717 27.1820979133
244 14 2 29.1569749032 2.91242171355 27.4740396694
245 14 2 28.5754648082 2.12095334797 27.8040000411
246 14 2 27.776470292 1.54493418973 28.1253405203
247 14 2 26.8263046691 1.22962973416 28.3922082789
248 14 2 25.8050600965 1.19654202831 28.5637155318
249 14 2 24.7993073873 1.44144981676 28.6076663489
250 14 2 23.8942053129 1.93479329782 28.5034912286
251 14 2 23.1657386081 2.62436842043 28.2441219524
252 14 2 22.673792166 3.44008514387 27.8366358344
253 15 1 23.9466700281 45.3307068068 14.2749625453
254 15 1 28.8513207413 47.8719843779 14.2093824369
255 15 2 23.7291562063 45.2298276575 13.7750698342
256 15 2 23.3691351392 45.2690004265 12.8043482796
257 15 2 23.1113614508 45.5960158659 11.8556314414
258 15 2 22.994931663 46.1763015433 11.0052417376
259 15 2 23.0460591785 46.9522001208 10.3205393308
260 15 2 23.275685 47.8482246674 9.8537824293
261 15 2 23.6784804866 48.7779390913 9.637364091
262 15 2 24.2333330452 49.6518365583 9.68085968298
263 15 2 24.905270487 50.3854978007 9.97015411223
264 15 2 25.6486486492 50.9072857079 10.4687283787
265 15 2 26.411311738 51.1648748574 11.1209881845
266 15 2 27.1393461902 51.1300208373 11.8573312056
267 15 2 27.7819947505 50.8011346491 12.6004911577
268 15 2 28.2962828592 50.2034275405 13.2725804113
269 15 2 28.6509356686 49.3866130676 13.8021892413
270 15 2 28.8292286621 48.4203758372 14.1308946322
271 16 1 34.4085007743 1.15927218609 11.1889636774
272 16 1 30.7602670296 1.66644534699 7.07178539722
273 16 2 34.3176129144 1.49101185204 11.6237852258
274 16 2 34.1350750889 2.278556267 12.2717850313
275 16 2 33.9345738551 3.21983074192 12.6555188314
276 16 2 33.7152077512 4.22878714346 12.7411663848
277 16 2 33.4777947976 5.2132083116 12.5220772149
278 16 2 33.224797937 6.08311340725 12.019376783
279 16 2 32.9601005435 6.75895942527 11.2800409588
280 16 2 32.6886524635 7.17889132676 10.3726142955
281 16 2 32.4160188505 7.30437996054 9.38096237725
282 16 2 32.1478729161 7.12373389231 8.39662769479
283 16 2 31.8894788321 6.65316504763 7.51048579255
284 16 2 31.6452119149 5.93531103823 6.80446220543
285 16 2 31.4181598278 5.0353488577 6.34406516533
286 16 2 31.2098411481 4.03505417265 6.1724147009
287 16 2 31.0200669532 3.02534768936 6.30631236217
288 16 2 30.8469580401 2.09800797431 6.73470980415
289 17 1 16.5287337316 13.2732476099 13.2736983461
290 17 1 11.8320765269 15.5246396783 11.4323303989
291 17 2 16.7628969755 13.5379561685 13.7008734183
292 17 2 17.1726561591 14.2220029529 14.362407559
293 17 2 17.5004901625 15.1008949183 14.8023209488
294 17 2 17.7011345916 16.0997313665 14.9907820166
295 17 2 17.7409180424 17.1326789801 14.9208783983
296 17 2 17.6008311586 18.1107953002 14.6092469807
297 17 2 17.2782592845 18.9501355939 14.0945574931
298 17 2 16.7872207834 19.579404192 13.4339878654
299 17 2 16.1570893015 19.946452899 12.6980126121
300 17 2 15.4299164383 20.0230341615 11.9639792693
301 17 2 14.6565988559 19.8073757576 11.3090583727
302 17 2 13.8922391842 19.3243423295 10.8032095704
303 17 2 13.1911235635 18.6231690385 10.5028049873
304 17 2 12.6017736079 17.7729739112 10.4454910569
305 17 2 12.1625237898 16.8564579166 10.6467571494
306 17 2 11.8980273552 15.962366993 11.0985237569
307 18 1 10.5858746799 49.0103855727 20.9734669081
308 18 1 7.93502221613 45.4544370044 24.2668241702
309 18 2 10.4929804576 49.5455320496 21.0846896569
310 18 2 10.0935372406 50.4801398929 21.2856953949
311 18 2 9.43302255668 51.2548843178 21.4778969544
312 18 2 8.57102862252 51.7990911961 21.6629789424
313 18 2 7.58551195008 52.0630992807 21.8432748957
314 18 2 6.56568781873 52.0227866958 22.0215545855
315 18 2 5.60389854102 51.6817695811 22.2007715599
316 18 2 4.78719670771 51.0710724905 22.3837939362
317 18 2 4.18941057678 50.246300587 22.5731429792
318 18 2 3.86441482504 49.2825713806 22.7707632953
319 18 2 3.84122001537 48.2676679681 22.9778455861
320 18 2 4.1213283614 47.2940378382 23.1947181197
321 18 2 4.67859680478 46.4503665305 23.4208168098
322 18 2 5.46161988507 45.813494185 23.6547366305
323 18 2 6.39841521007 45.4414117693 23.8943596806
324 18 2 7.40298445847 45.3679753565 24.1370482251
325 19 1 10.258647723 32.2217370347 50.1006332654
326 19 1 8.97265618785 35.195933949 45.6264440039
327 19 2 10.7987316109 32.2088273369 50.2252299015
328 19 2 11.8314679745 32.1259637237 50.231493775
329 19 2 12.8162428277 31.9888009924 49.9401951571
330 19 2 13.6686851356 31.827810689 49.3737375284
331 19 2 14.3164856211 31.6756361791 48.5796043779
332 19 2 14.7059875621 31.5641172923 47.6260312098
333 19 2 14.8070774586 31.5213882067 46.5957860597
334 19 2 14.6159297975 31.569313094 45.5786254096
335 19 2 14.1553557382 31.7214932586 44.6631131243
336 19 2 13.472723936 31.9820274149 43.9285480917
337 19 2 12.6356430159 32.3451381006 43.4377363412
338 19 2 11.7257992274 32.7956982769 43.2312664423
339 19 2 10.8315109608 33.3106101178 43.3238099645
340 19 2 10.0396787622 33.8609103149 43.7027842032
341 19 2 9.42786458105 34.4144100058 44.3294990595
342 19 2 9.05722220548 34.9386287027 45.1426835395
343 20 1 5.65562137652 36.0792459223 41.7553180208
344 20 1 8.17916578356 40.9583128776 41.1684446677
345 20 2 5.97602640244 35.6730136496 41.9545604562
346 20 2 6.72199290017 34.9830735992 42.1569628334
347 20 2 7.60776408101 34.4461131145 42.1338789803
348 20 2 8.56321698333 34.1204818356 41.9003751627
349 20 2 9.51187734283 34.0452673102 41.4906968638
350 20 2 10.3778900173 34.2367322683 40.9551473996
351 20 2 11.0929329803 34.6868323176 40.3555029067
352 20 2 11.6024446908 35.3639491688 39.759381612
353 20 2 11.8705972322 36.2157725576 39.2340806127
354 20 2 11.8835619313 37.1740681859 38.8404419248
355 20 2 11.6507698043 38.1608970955 38.6273068971
356 20 2 11.2040519456 39.0957195958 38.6270644517
357 20 2 10.5947382079 39.9027362415 38.8526989212
358 20 2 9.88897862399 40.5177967493 39.296606561
359 20 2 9.16171400767 40.8942471249 39.9312886103
360 20 2 8.48984529893 41.0071820497 40.711857731
361 21 1 8.04072581096 27.1891957602 50.2336419796
362 21 1 4.8696022542 27.5036076626 45.7210915251
363 21 2 8.04251012927 26.6944628706 50.4838774133
364 21 2 7.81204973164 25.792233852 50.9381029236
365 21 2 7.29689782246 24.9812263551 51.3258339666
366 21 2 6.54368306499 24.3233915788 51.5967046873
367 21 2 5.6207329148 23.8667194376 51.7110007368
368 21 2 4.61184575487 23.6408644099 51.6432791293
369 21 2 3.6086528969 23.6544426107 51.3846873016
370 21 2 2.70226663222 23.8942464564 50.943770001
371 21 2 1.97497558989 24.3264485006 50.3456904545
372 21 2 1.49274434815 24.8996847151 49.6299368076
373 21 2 1.29920093941 25.5497361842 48.8467228856
374 21 2 1.41166027167 26.205382487 48.0524113375
375 21 2 1.819545921 26.7948932484 47.3043763314
376 21 2 2.48535414424 27.2525661713 46.6557740521
377 21 2 3.348072245 27.524715625 46.1506976572
378 21 2 4.32873971784 27.5745659474 45.8201583037
379 22 1 41.5003557292 28.5860061957 9.48614215504
380 22 1 37.1403183562 31.4531419898 11.2993154799
381 22 2 41.990037926 28.7564309337 9.68247947422
382 22 2 42.8294511215 29.2863091947 9.97923615372
383 22 2 43.4997004696 30.0513364898 10.1765913164
384 22 2 43.9352693302 30.9862713717 10.2747062771
385 22 2 44.0920315623 32.0103857707 10.2827878298
386 22 2 43.9512735038 33.0348231426 10.2182490729
387 22 2 43.521399672 33.9706975051 10.1051222519
388 22 2 42.8371667142 34.7371951573 9.97186828472
389 22 2 41.9565154322 35.268940633 9.84878262461
390 22 2 40.9552896329 35.5219554992 9.7652339109
391 22 2 39.9203231685 35.4776668731 9.74698709594
392 22 2 38.9415252623 35.1446002907 9.81385503852
393 22 2 38.1036855239 34.5576026267 9.97789261477
394 22 2 37.4787456026 33.7746658952 10.2422979484
395 22 2 37.1192418983 32.8716414328 10.6011209105
396 22 2 37.0535170093 31.9353262516 11.0398054573
397 23 1 7.92701811046 28.1222262051 14.6226203258
398 23 1 4.31134899132 29.0475745585 10.5497026607
399 23 2 7.99664930773 28.5455458528 14.9738091073
400 23 2 8.15735806209 29.4605479689 15.4324961848
401 23 2 8.32970293865 30.4684312664 15.5995845247
402 23 2 8.48007899782 31.4841657688 15.4613077281
403 23 2 8.57688369905 32.4220058835 15.031732612
404 23 2 8.59339738785 33.2033058827 14.3514770567
405 23 2 8.51021872091 33.7636882521 13.4840077947
406 23 2 8.31703304673 34.0589115288 12.5098555872
407 23 2 8.01355255845 34.0689027923 11.5192750609
408 23 2 7.60954252674 33.7995872581 10.6040182399
409 23 2 7.12393122149 33.2823482094 9.84897159368
410 23 2 6.58308465052 32.5711664954 9.32441886275
411 23 2 6.01840336854 31.7377003208 9.07963488312
412 23 2 5.46346040043 30.8647537919 9.13839431694
413 23 2 4.9509411498 30.038729544 9.49680465551
414 23 2 4.5096642118 29.3417533717 10.1236610111
415 24 1 15.0499371752 37.4501593177 50.0097323443
416 24 1 12.3673314652 37.10527469 54.8266475667
417 24 2 14.7357818793 37.5979132384 49.5774629641
418 24 2 14.0083297703 37.7018719772 48.8470822272
419 24 2 13.1475457642 37.5854209431 48.2823344404
420 24 2 12.2202115158 37.2722039446 47.9426341096
421 24 2 11.2991745565 36.8037994818 47.8668832666
422 24 2 10.456708437 36.2359309777 48.0699256527
423 24 2 9.75792518541 35.6333877365 48.5411937516
424 24 2 9.25484052093 35.0641195722 49.2456719903
425 24 2 8.98163275938 34.5930433645 50.1270883145
426 24 2 8.95152755131 34.2761260584 51.1130432368
427 24 2 9.15559239931 34.1552834275 52.1216088556
428 24 2 9.56355083121 34.2545595625 53.0687963651
429 24 2 10.1265420197 34.5779353169 53.8762114097
430 24 2 10.7815743159 35.1089654632 54.4781995208
431 24 2 11.4572667701 35.8122776306 54.8278303455
432 24 2 12.0803553145 36.636796403 54.9011752231
433 25 1 19.3865877086 31.6035006611 37.5721068364
434 25 1 23.5129895108 30.5434528887 41.0887953283
435 25 2 18.964809046 31.2441988687 37.5917682157
436 25 2 18.3475487053 30.4122596818 37.6095691159
437 25 2 18.0002942686 29.4361424818 37.617287889
438 25 2 17.9534932484 28.4012459204 37.6330607398
439 25 2 18.2102076312 27.3983262306 37.6742897658
440 25 2 18.7458347855 26.515225039 37.756056802
441 25 2 19.5103499265 25.8288628366 37.8897487521
442 25 2 20.432865741 25.3982278813 38.0820197027
443 25 2 21.4280935766 25.2589995756 38.3341844212
444 25 2 22.4041172748 25.4202963853 38.6420985179
445 25 2 23.2707710826 25.8638447146 38.9965361965
446 25 2 23.9478580205 26.5456444966 39.3840311605
447 25 2 24.3724596222 27.3999796808 39.7881040301
448 25 2 24.5046707852 28.3454080764 40.1907643938
449 25 2 24.3312370138 29.2921845894 40.5741505861
450 25 2 23.8667625314 30.1504412489 40.922157731
451 26 1 38.3914196181 43.2358081915 29.5883459697
452 26 1 35.2757306515 40.2942390842 33.0751273668
453 26 2 38.1426196503 43.6815146005 29.3719528989
454 26 2 37.5064284699 44.3611941168 28.9172589928
455 26 2 36.6908250153 44.7931940385 28.4464967559
456 26 2 35.7599477151 44.9445578453 28.017537013
457 26 2 34.7884419007 44.8079082487 27.6844404031
458 26 2 33.8546560841 44.4021196122 27.492529897
459 26 2 33.0335007002 43.7705976033 27.4742597297
460 26 2 32.3896202211 42.9773228833 27.6462572829
461 26 2 31.9715009851 42.1010194405 28.0078075447
462 26 2 31.8070517965 41.2279791096 28.5409182801
463 26 2 31.901060113 40.4441963012 29.2119599754
464 26 2 32.2347556813 39.8275298415 29.9747310789
465 26 2 32.7675213959 39.4406063479 30.7746691482
466 26 2 33.4405954393 39.3251119807 31.5538240714
467 26 2 34.1824272651 39.4979928608 32.256140065
468 26 2 34.9151992386 39.9499104759 32.8325650082
469 27 1 2.14712011166 9.0957143048 10.0402315092
470 27 1 5.54740752929 13.2726901106 11.2686083475
471 27 2 2.39793253881 8.63653581334 9.85684713848
472 27 2 2.97394937899 7.92785937781 9.36752891817
473 27 2 3.65606117002 7.46924760232 8.73677638738
474 27 2 4.39785806055 7.30202127732 8.03305574635
475 27 2 5.14749006191 7.44094218827 7.33148404352
476 27 2 5.85239303606 7.87286761832 6.70698245738
477 27 2 6.46407977622 8.55794827183 6.22744743126
478 27 2 6.94255948618 9.4332604312 5.94756209401
479 27 2 7.25998283452 10.4185412855 5.90381203895
480 27 2 7.40318034672 11.4235046711 6.11115975957
481 27 2 7.37486276754 12.3560704144 6.56168085824
482 27 2 7.19337398391 13.1307571932 7.22528633385
483 27 2 6.89101902866 13.6764739312 8.05246511386
484 27 2 6.51111956312 13.9429995591 8.97879685623
485 27 2 6.10406522344 13.9055605312 9.93082369142
486 27 2 5.72272074002 13.5670888676 10.8327457108
487 28 1 34.1875393358 42.4716930806 49.0296552009
488 28 1 33.6443104459 46.1235460656 44.9202923293
489 28 2 33.7310432054 42.1782979852 49.143287014
490 28 2 32.7755342203 41.8417264099 49.3604785546
491 28 2 31.7579598357 41.803927837 49.5516947957
492 28 2 30.7638999574 42.0653308159 49.6819386136
493 28 2 29.8767912067 42.5990924741 49.7217703578
494 28 2 29.1703218956 43.3535451735 49.6499911969
495 28 2 28.7017155339 44.2569058776 49.4555753351
496 28 2 28.5065150595 45.2238189831 49.1386749841
497 28 2 28.5953431942 46.1631362551 48.7106064894
498 28 2 28.9529342112 46.9862247454 48.1928188757
499 28 2 29.5395253656 47.6150454484 47.6149388257
500 28 2 30.2944811618 47.9892663482 47.0120702868
501 28 2 31.1418201171 48.0717615204 46.4215948406
502 28 2 31.9971402709 47.851995061 45.8797644714
503 28 2 32.7753121976 47.3469814058 45.4183972946
504 28 2 33.3982383263 46.5997345103 45.0619774209
505 29 1 20.454589877 39.9110093327 -0.018423923217
506 29 1 18.4107468423 34.8174040598 -0.647615495365
507 29 2 20.6296727152 40.0308223005 0.493799114681
508 29 2 20.745277584 40.1730961197 1.51352637521
509 29 2 20.5841820921 40.1841622529 2.53694016952
510 29 2 20.1690296456 40.0463769056 3.47614922794
511 29 2 19.5456202629 39.7556636979 4.25093731744
512 29 2 18.7787360255 39.3218852158 4.79607473684
513 29 2 17.9462363644 38.7679440625 5.06726382974
514 29 2 17.1319613812 38.1276953475 5.04517659748
515 29 2 16.4180900467 37.442860884 4.73721639461
516 29 2 15.8776498076 36.7592263569 4.17684313286
517 29 2 15.5678603296 36.1224680802 3.42052349965
518 29 2 15.5249180782 35.5739897229 2.54258417042
519 29 2 15.7606971074 35.1471484753 1.62843713086
520 29 2 16.2616667713 34.8642146303 0.766794602678
521 29 2 16.9901250066 34.7343417057 0.0415831616943
522 29 2 17.8876347745 34.7527321253 -0.475705945214
523 30 1 28.0003655278 46.5261723709 32.2945233773
524 30 1 27.6727889185 51.5238896285 29.9635349947
525 30 2 28.3660590745 46.4853676977 32.7092338746
526 30 2 29.195925813 46.5082191708 33.3291121028
527 30 2 30.1471670487 46.6719497173 33.7056521813
528 30 2 31.1309492972 46.9786023357 33.8132935786
529 30 2 32.0554730475 47.4171930598 33.6509851589
530 30 2 32.8343400424 47.9647121173 33.242280991
531 30 2 33.3944282489 48.5882212099 32.6331934573
532 30 2 33.6825567354 49.2478557504 31.8879993488
533 30 2 33.6703329723 49.9004584137 31.0833812067
534 30 2 33.3567407344 50.5035128115 30.3014379141
535 30 2 32.7682327277 51.0190187474 29.6222016022
536 30 2 31.9563194959 51.4169558334 29.1163429355
537 30 2 30.9928743714 51.6780197679 28.8387296695
538 30 2 29.9635824141 51.7953818712 28.8234256013
539 30 2 28.9601304464 51.7753115015 29.0805857459
540 30 2 28.0718500449 51.6366046195 29.5955307335
541 31 1 20.882922316 11.4781486582 6.71159965297
542 31 1 15.6065293203 10.4487110155 7.98357691561
543 31 2 21.2469688882 11.1094331625 6.9088319133
544 31 2 21.8154807437 10.4589407163 7.4807618555
545 31 2 22.185390654 9.89669152476 8.26847532886
546 31 2 22.313358408 9.45743881484 9.19806196922
547 31 2 22.1780961756 9.16472501291 10.1826800525
548 31 2 21.7823088365 9.02873591557 11.1304718855
549 31 2 21.1524474374 9.04537228146 11.9529363896
550 31 2 20.3362982501 9.19662346622 12.5729957369
551 31 2 19.3986271801 9.45220904449 12.9320207889
552 31 2 18.4152765281 9.77233878985 12.9951749852
553 31 2 17.4662521664 10.1113394475 12.7545896032
554 31 2 16.6284312175 10.4218177296 12.230080971
555 31 2 15.9685549105 10.6589800863 11.4673442621
556 31 2 15.5371452956 10.7847155186 10.5337885024
557 31 2 15.3639002948 10.7710692939 9.51239241791
558 31 2 15.4549868156 10.602790945 8.49414114529
559 32 1 12.1790401092 37.3679096672 50.6181869062
560 32 1 8.11438410359 40.684386148 48.8868445457
561 32 2 12.6768625102 37.6089277032 50.6564589778
562 32 2 13.5597142549 38.1307061567 50.5089121938
563 32 2 14.3063325307 38.7177834188 50.0949660019
564 32 2 14.8440566758 39.3340830748 49.4589805548
565 32 2 15.1192661703 39.940865167 48.6655542898
566 32 2 15.1022680028 40.5002572383 47.7936359542
567 32 2 14.7900031094 40.978706305 46.9293286372
568 32 2 14.2063251992 41.3500371223 46.1580417046
569 32 2 13.3998265522 41.5978379874 45.5567059624
570 32 2 12.4394089631 41.7169566223 45.18676162
571 32 2 11.4080035267 41.7139697907 45.0885581791
572 32 2 10.3950116905 41.6065838429 45.2776766845
573 32 2 9.48815655131 41.4220208297 45.7435095536
574 32 2 8.76548712996 41.1945372852 46.4502274291
575 32 2 8.28826441122 40.9623018351 47.3400449293
576 32 2 8.09537756898 40.7639162288 48.3384876309
577 33 1 41.5652696437 20.6696770213 18.7129313835
578 33 1 38.8946668513 16.9012938016 21.7436342221
579 33 2 41.852809351 21.0431308656 19.004881261
580 33 2 42.1881022995 21.7645815846 19.6686112587
581 33 2 42.2406320507 22.4495575603 20.4441746341
582 33 2 42.012643097 23.0248462173 21.27514636
583 33 2 41.531948461 23.4272326862 22.1000510865
584 33 2 40.8493946128 23.60926167 22.8579664542
585 33 2 40.0342269502 23.5435628676 23.4940760048
586 33 2 39.1677782657 23.2253457031 23.9646655547
587 33 2 38.3360554798 22.6728359748 24.2411076259
588 33 2 37.6219003402 21.9256146219 24.3124707643
589 33 2 37.0974386181 21.0410100275 24.1865159122
590 33 2 36.8175060364 20.0888726902 23.8889890196
591 33 2 36.8146501405 19.1452085376 23.4612743691
592 33 2 37.0961636765 18.2852511892 22.9566225099
593 33 2 37.6434198769 17.5766046128 22.4352966116