LAMMPS input file for bananas

648 atoms

2 atom types

0 53.5546360066 xlo xhi
0 53.5546360066 ylo yhi
0 53.5546360066 zlo zhi

Masses

 1 1
 2 1

Atoms

1 1 1 26.1133605257 18.3889012459 17.0671475536
2 1 1 29.3804690382 21.5456664384 20.2102076149
3 1 2 25.5718292217 18.5008510978 17.107055768
4 1 2 24.6008478335 18.6937942715 17.4126994929
5 1 2 23.7609930012 18.8663399334 17.9943539147
6 1 2 23.1288871832 19.0219242051 18.8003847953
7 1 2 22.7622170706 19.1655291933 19.7587065821
8 1 2 22.6944755991 19.3032288847 20.7833528133
9 1 2 22.9319091579 19.4416355178 21.7823117315
10 1 2 23.452948248 19.5872968952 22.665912909
11 1 2 24.2101734839 19.7460995692 23.355000468
12 1 2 25.1346377445 19.9227322978 23.7881479271
13 1 2 26.1421505184 20.1202586772 23.9272570608
14 1 2 27.1409516442 20.3398379034 23.7610304512
15 1 2 28.040075004 20.5806191141 23.3060012174
16 1 2 28.7576398418 20.8398189429 22.6050260656
17 1 2 29.2283139757 21.1129752155 21.7233790151
18 1 2 29.4092686514 21.3943536652 20.742801846
19 2 1 18.4176025114 24.6120881367 39.9899257511
20 2 1 21.4074648151 28.6926302548 37.7700405088
21 2 2 18.050597814 24.7731606128 40.372998587
22 2 2 17.550029655 25.186487832 41.1804898496
23 2 2 17.3243472113 25.7261399674 42.0356465713
24 2 2 17.3877889927 26.3594956121 42.8531340506
25 2 2 17.7282406084 27.045392535 43.5510510369
26 2 2 18.3083389615 27.7378795077 44.0583948104
27 2 2 19.0688777958 28.3904046364 44.3215328904
28 2 2 19.9342041872 28.9600584428 44.3090914922
29 2 2 20.819114106 29.4114849478 44.0148151643
30 2 2 21.6366185364 29.7201042752 43.4581369554
31 2 2 22.3058722926 29.874353041 42.6824071447
32 2 2 22.7595428415 29.8767383255 41.7509419791
33 2 2 22.9499474832 29.7436091593 40.7412525671
34 2 2 22.8533995015 29.5036663531 39.7379799481
35 2 2 22.4723671449 29.1953464954 38.8251802878
36 2 2 21.8352486525 28.8633185601 38.0786633838
37 3 1 15.4500151446 21.1585668121 49.9267410563
38 3 1 13.3833877168 18.6674839667 45.4499622597
39 3 2 15.4822631187 20.838425818 50.3782401151
40 3 2 15.3177371382 20.1926093537 51.1715258816
41 3 2 14.8795708665 19.5227853679 51.8293983294
42 3 2 14.212920351 18.8731285385 52.2843412989
43 3 2 13.3837673676 18.285975361 52.48733511
44 3 2 12.4729053575 17.79796529 52.4123245752
45 3 2 11.5685753215 17.4367011509 52.05859386
46 3 2 10.7584228883 17.2182332164 51.4508317291
47 3 2 10.1215096498 17.1455962665 50.6368812323
48 3 2 9.72110690842 17.208532977 49.6833789374
49 3 2 9.59892866693 17.3844288468 48.6696811858
50 3 2 9.77132950846 17.6403734492 47.680630974
51 3 2 10.2278139201 17.9361601297 46.7988247409
52 3 2 10.9319929309 18.2279507348 46.0970839235
53 3 2 11.824900869 18.4722713425 45.6318174774
54 3 2 12.8303699255 18.6299747943 45.4378803514
55 4 1 12.8838866938 9.24451829698 35.9483459334
56 4 1 11.4956843446 5.10935587721 39.3382304537
57 4 2 12.7939034268 9.7527482152 36.1507982733
58 4 2 12.4116266925 10.6169239971 36.5756685214
59 4 2 11.7867051987 11.2989676026 37.0422943435
60 4 2 10.9809547078 11.7344741927 37.5265981403
61 4 2 10.0726730623 11.8815101181 38.0028910126
62 4 2 9.14950354507 11.7244350597 38.4462142352
63 4 2 8.300446429 11.2753276017 38.8346141786
64 4 2 7.60774683955 10.5728843012 39.1511433234
65 4 2 7.13939833156 9.67889259996 39.3854049813
66 4 2 6.94294545843 8.67259906463 39.5345009255
67 4 2 7.04115021316 7.64348627389 39.6032955565
68 4 2 7.42991733353 6.68311672053 39.6039725249
69 4 2 8.07866757427 5.87678713501 39.554924224
70 4 2 8.9331249236 5.29575391641 39.4790753727
71 4 2 9.92026371656 4.99073830214 39.4017934883
72 4 2 10.9549647293 4.98730326273 39.3485767052
73 5 1 30.2226148353 42.0586698191 42.3275833928
74 5 1 33.7221007946 42.5130624257 38.0772755873
75 5 2 29.814170694 41.6907462911 42.2555608334
76 5 2 29.0201873993 41.1173271054 41.9175800997
77 5 2 28.257808261 40.7259081415 41.3353264991
78 5 2 27.6055982882 40.5380451925 40.5525240496
79 5 2 27.1320808647 40.5567404649 39.631176261
80 5 2 26.8894920261 40.7661689352 38.6459146803
81 5 2 26.9090192849 41.1331207589 37.6771964259
82 5 2 27.1979589716 41.6100282587 36.8039707361
83 5 2 27.7390511943 42.1393015914 36.0964829574
84 5 2 28.4920530311 42.6585779081 35.6098718684
85 5 2 29.3974065653 43.1064055611 35.3791439281
86 5 2 30.3816674301 43.4278452576 35.41598253
87 5 2 31.3641990667 43.579477629 35.7076830929
88 5 2 32.2645225303 43.5333607908 36.2183110487
89 5 2 33.0096519319 43.2795771701 36.8919771826
90 5 2 33.540746906 42.8271374664 37.6579317858
91 6 1 29.5943031847 12.055631796 2.77329779487
92 6 1 31.0360172845 7.13420345154 4.82731691994
93 6 2 29.5988672843 12.4719657853 3.13939445747
94 6 2 29.4784402525 13.1019238094 3.95308987293
95 6 2 29.2136339299 13.4858673396 4.87824661009
96 6 2 28.8440423827 13.5845217649 5.84111700833
97 6 2 28.4188105702 13.3846158133 6.76451590766
98 6 2 27.9921549129 12.9000911934 7.57485586968
99 6 2 27.6184216114 12.1708318446 8.20885447598
100 6 2 27.3471331347 11.2590286229 8.61930235139
101 6 2 27.2184743798 10.2435107702 8.77936617235
102 6 2 27.2596299261 9.21256083986 8.68503445267
103 6 2 27.4823062329 8.25586797794 8.35548317973
104 6 2 27.8816646277 7.45635299714 7.83132797451
105 6 2 28.4367623377 6.88261036641 7.17092208629
106 6 2 29.1124613679 6.58265600841 6.44503764994
107 6 2 29.8626312351 6.57955077653 5.73041499497
108 6 2 30.6343536387 6.86929851972 5.10276796964
109 7 1 33.5881430857 30.0937389104 22.4775018422
110 7 1 31.2839287605 26.3731135879 25.8487826989
111 7 2 33.516648825 30.6222135709 22.6291088734
112 7 2 33.1569807095 31.5466814785 22.9281873678
113 7 2 32.5346449655 32.314175501 23.2397979555
114 7 2 31.7079789513 32.8535669428 23.554647419
115 7 2 30.753944183 33.1145180489 23.8631473255
116 7 2 29.7611114984 33.0720701565 24.1562879878
117 7 2 28.8215880614 32.7289186107 24.4264596724
118 7 2 28.0226220408 32.1151670909 24.6681462071
119 7 2 27.4386501723 31.285583741 24.8784277646
120 7 2 27.1245130494 30.314609199 25.0572469976
121 7 2 27.1104565497 29.2895715326 25.2074142654
122 7 2 27.3993750042 28.3027265184 25.3343514776
123 7 2 27.9665473862 27.442848775 25.4455979009
124 7 2 28.7618905677 26.7871401937 25.5501229759
125 7 2 29.7145242619 26.3941931923 25.6575087757
126 7 2 30.7392315721 26.2986501729 25.7770766264
127 8 1 48.2062908443 11.349332185 38.7311048093
128 8 1 43.5454721609 8.42715524498 38.2254940955
129 8 2 48.5615384978 11.1584794713 39.1115728558
130 8 2 49.035696616 10.8035362485 39.9616548511
131 8 2 49.2244698667 10.4632750939 40.9218824375
132 8 2 49.1088404086 10.1497048332 41.9025727715
133 8 2 48.6975358937 9.87240148853 42.8121778849
134 8 2 48.0262339653 9.63763544942 43.5656290372
135 8 2 47.1543103359 9.44779994374 44.0920905043
136 8 2 46.1594268497 9.30119290134 44.3414160651
137 8 2 45.1304528135 9.19217209317 44.2887196956
138 8 2 44.1593647964 9.11166940537 43.9366438636
139 8 2 43.3328632117 9.04801737366 43.3151186746
140 8 2 42.7244698057 8.98801264148 42.4786338231
141 8 2 42.3878263473 8.91811941068 41.501272002
142 8 2 42.3518053239 8.82570319331 40.4699564635
143 8 2 42.6178782915 8.70018241145 39.4765281972
144 8 2 43.1599817462 8.53399287978 38.6093748687
145 9 1 40.4740930373 46.6605986657 21.5797637175
146 9 1 39.0948035431 41.3281197779 22.0042875254
147 9 2 40.0528964199 47.016240618 21.6388720872
148 9 2 39.1622226982 47.5431908368 21.5891347819
149 9 2 38.2001657825 47.8423791144 21.3475092936
150 9 2 37.244104522 47.8781012802 20.9498652262
151 9 2 36.3708712782 47.6386673955 20.44629286
152 9 2 35.6497488602 47.1374672601 19.8965375566
153 9 2 35.1361555816 46.411749968 19.3645541289
154 9 2 34.86659403 45.5192287519 18.9126775308
155 9 2 34.8553239531 44.5328205763 18.5959411929
156 9 2 35.0930625211 43.5339999513 18.4570608721
157 9 2 35.5478304318 42.6053727484 18.5225412249
158 9 2 36.1678667383 41.8231468963 18.8002599785
159 9 2 36.8863467214 41.250186232 19.2787498971
160 9 2 37.6274727837 40.9302806298 19.92824399
161 9 2 38.3133831984 40.8841546716 20.7033886927
162 9 2 38.8712489971 41.1075786563 21.5473777239
163 10 1 13.8809750979 25.9292872518 40.3487857902
164 10 1 10.614040195 24.0833062622 44.4031022046
165 10 2 13.946199292 26.4796492101 40.333649499
166 10 2 13.8330965515 27.5093818768 40.3160877115
167 10 2 13.4253090646 28.4617351982 40.3295980047
168 10 2 12.7608366017 29.2542478927 40.3916462626
169 10 2 11.9010750824 29.8190277246 40.5152742635
170 10 2 10.925220502 30.1089397 40.7079109568
171 10 2 9.92305042798 30.1019022955 40.9706953338
172 10 2 8.98674101468 29.80290013 41.2983726121
173 10 2 8.20246539331 29.2435296299 41.6797731949
174 10 2 7.64253922128 28.4791190995 42.0988307495
175 10 2 7.35882930331 27.5836856938 42.5360466109
176 10 2 7.37802607085 26.6431889526 42.9702670333
177 10 2 7.69921082053 25.7476958186 43.3806112968
178 10 2 8.29393945158 24.9831712756 43.7483749298
179 10 2 9.10883506955 24.4236428705 44.0587345711
180 10 2 10.0704531476 24.1244533004 44.3020990802
181 11 1 27.838454042 2.33733460318 19.1923163787
182 11 1 24.2611270558 1.03282861855 23.1946890288
183 11 2 27.9891246963 2.87070765313 19.1784191996
184 11 2 28.0386457589 3.90542534312 19.15952535
185 11 2 27.7845664637 4.909833838 19.167094916
186 11 2 27.2512572297 5.7965817061 19.2191476826
187 11 2 26.4885395385 6.48904196737 19.3296489102
188 11 2 25.5671448396 6.92829643786 19.5072364382
189 11 2 24.5722675674 7.07850596467 19.7544333688
190 11 2 23.5957998967 6.93017706899 20.0674180935
191 11 2 22.7279560161 6.50102725129 20.436372622
192 11 2 22.0490493462 5.83437008849 20.846377466
193 11 2 21.6221721859 4.99516731726 21.2787715108
194 11 2 21.4874450177 4.06410774525 21.7128529256
195 11 2 21.6583596334 3.13025268204 22.1277660807
196 11 2 22.1205493929 2.28291823873 22.5044024817
197 11 2 22.8330987053 1.60353440318 22.8271424583
198 11 2 23.7322723758 1.15822291423 23.0852788552
199 12 1 4.61972416819 17.9007038929 8.94316568802
200 12 1 4.9571226374 13.0182196002 11.5054889436
201 12 2 4.21158306607 17.9410086472 8.57010006967
202 12 2 3.53895221944 17.8145488464 7.79226610659
203 12 2 3.02511926027 17.4285471496 6.97959865227
204 12 2 2.70279894282 16.8083939666 6.21476556349
205 12 2 2.58725015589 16.0008219892 5.57607472249
206 12 2 2.67488511595 15.0696466316 5.13033648275
207 12 2 2.94359638398 14.0899494256 4.92677408387
208 12 2 3.35477189947 13.1412345399 4.99253708483
209 12 2 3.85681436654 12.3001821875 5.33022675426
210 12 2 4.38984420951 11.633659429 5.91765897176
211 12 2 4.89115743623 11.1926254194 6.70988625117
212 12 2 5.30094093935 11.0074866166 7.64329458382
213 12 2 5.56772430117 11.0853253145 8.64140168536
214 12 2 5.65307118469 11.4092541106 9.62182815159
215 12 2 5.53508270295 11.9399551478 10.503806121
216 12 2 5.21039344408 12.6192638318 11.2155410493
217 13 1 16.5151852446 29.7645315262 11.7729652064
218 13 1 21.6565131553 27.9099819366 10.9696071322
219 13 2 16.3833052213 30.2195139427 11.4849022825
220 13 2 16.3380003432 31.1523535302 11.0363403768
221 13 2 16.564418949 32.1145656931 10.725965797
222 13 2 17.0507856111 33.015174528 10.5653382538
223 13 2 17.7616313315 33.7688191102 10.5523684156
224 13 2 18.6410264457 34.3035339139 10.6715083457
225 13 2 19.6176784628 34.5673082773 10.8951686549
226 13 2 20.6114301849 34.5328270358 11.1862332012
227 13 2 21.5405658217 34.1999602258 11.5014421262
228 13 2 22.3292591665 33.5957749309 11.795334876
229 13 2 22.914484952 32.7720681893 12.0243938093
230 13 2 23.2517634354 31.8006458324 12.1510107136
231 13 2 23.3192146074 30.7667775752 12.1469146937
232 13 2 23.1195524971 29.7614249096 11.995748988
233 13 2 22.6798377955 28.8729502073 11.6945618438
234 13 2 22.0490113455 28.1790627264 11.2540755614
235 14 1 31.8868589226 25.467869826 41.1093598828
236 14 1 29.4529897497 24.8520759286 46.0302408798
237 14 2 32.275429852 25.8627988314 41.0887370421
238 14 2 32.8338473752 26.7334777265 41.1482193312
239 14 2 33.1372447786 27.7045160639 41.344394187
240 14 2 33.1664033013 28.6854759432 41.6765349808
241 14 2 32.9271003234 29.5850151419 42.1315221518
242 14 2 32.4495827731 30.3192127151 42.6850390205
243 14 2 31.7858102003 30.8192181647 43.3037881886
244 14 2 31.0047188023 31.0375269793 43.9485265082
245 14 2 30.185938074 30.9523105423 44.5776419897
246 14 2 29.4125327917 30.5694057531 45.1509466232
247 14 2 28.7634318812 29.9217830082 45.6333394087
248 14 2 28.3062342571 29.0665410386 45.9980057181
249 14 2 28.0910473624 28.0797025127 46.2288613769
250 14 2 28.1459200087 27.049284773 46.3220186937
251 14 2 28.4742858025 26.0672772912 46.2861408131
252 14 2 29.0546501808 25.2212570732 46.1416520929
253 15 1 37.4129788002 28.8782193249 11.8444104098
254 15 1 34.6437766304 33.6560315709 11.6960171976
255 15 2 37.8801047707 28.8696093212 11.5459128661
256 15 2 38.6139900769 28.9369293688 10.8176750068
257 15 2 39.1145918778 29.1218359643 9.92961115832
258 15 2 39.3431482951 29.4251679579 8.96566008229
259 15 2 39.28569366 29.836970041 8.01667745841
260 15 2 38.9543314467 30.3374001464 7.17215463196
261 15 2 38.3861310732 30.8985379995 6.51206171688
262 15 2 37.6397491227 31.4869299768 6.09955853362
263 15 2 36.7900829529 32.0666383142 5.97523776032
264 15 2 35.921444002 32.6025167381 6.15342501872
265 15 2 35.1198730267 33.0634139544 6.62087313198
266 15 2 34.4652977166 33.4250130058 7.33796956947
267 15 2 34.0242474996 33.6720476971 8.24234702307
268 15 2 33.8437895621 33.7996940686 9.25456802058
269 15 2 33.9472388004 33.8140100865 10.285365439
270 15 2 34.332032731 33.7313834762 11.2437789643
271 16 1 48.2673282463 35.3896535617 8.26075276543
272 16 1 46.8725796914 40.5343642314 6.81002203375
273 16 2 48.089757082 34.993463995 7.91595732337
274 16 2 47.5505852073 34.3612664415 7.29703087044
275 16 2 46.7879555499 33.9270891752 6.7462712876
276 16 2 45.8736302641 33.7389381783 6.29676212707
277 16 2 44.8931981557 33.8223947967 5.97235823569
278 16 2 43.9382734903 34.1782840675 5.78551144941
279 16 2 43.0981455985 34.7825995201 5.73613564168
280 16 2 42.4516403918 35.5886913013 5.81161457372
281 16 2 42.0599355914 36.5315181848 5.9879518309
282 16 2 41.9609845424 37.5335759052 6.23195803183
283 16 2 42.166056868 38.5119614646 6.50427595176
284 16 2 42.6587112735 39.3859295195 6.76296782843
285 16 2 43.3962941261 40.0842521025 6.967337877
286 16 2 44.3138272197 40.5517108618 7.08164160207
287 16 2 45.3299303649 40.754130066 7.0783438129
288 16 2 46.3542389752 40.6814916308 6.94062838246
289 17 1 51.8788275451 36.1968786135 14.8243502854
290 17 1 47.3492946796 33.2835364168 16.0546999621
291 17 2 52.0337273353 36.5624150314 15.2113525724
292 17 2 52.0981093615 37.3128497632 15.9227966526
293 17 2 51.8625079578 38.0821753537 16.5755447859
294 17 2 51.3446230515 38.7906401963 17.1262922795
295 17 2 50.5878839567 39.3640399791 17.5410315262
296 17 2 49.6574909085 39.7404812091 17.798151707
297 17 2 48.6344722356 39.8760226393 17.8904085594
298 17 2 47.6082988449 39.7486803952 17.8255846728
299 17 2 46.6687291874 39.360431747 17.6257801259
300 17 2 45.8976280151 38.737034886 17.3253981241
301 17 2 45.3615046282 37.9256811347 16.9680092387
302 17 2 45.1054507295 36.9906935837 16.6023800663
303 17 2 45.1490304367 36.0076642142 16.2780282835
304 17 2 45.4844970649 35.0565638906 16.0407092433
305 17 2 46.0774992169 34.21445323 15.9282454967
306 17 2 46.8702118206 33.5484587333 15.9670793683
307 18 1 13.6962800279 31.928798823 3.41986087228
308 18 1 9.66763305918 35.6945871583 3.7467138621
309 18 2 13.5409692124 31.4378085516 3.21446201143
310 18 2 13.0792366229 30.5377084294 2.99069249409
311 18 2 12.4219494167 29.7368817052 2.98068761665
312 18 2 11.6166623635 29.1135767302 3.17161608847
313 18 2 10.7244200236 28.7298612226 3.53233208111
314 18 2 9.8141926993 28.6259649609 4.01621408746
315 18 2 8.95658997606 28.8166129473 4.56541434743
316 18 2 8.21742484764 29.289683263 5.1161315167
317 18 2 7.65171503761 30.0073119487 5.60442598872
318 18 2 7.29866828085 30.9093442035 5.97204781894
319 18 2 7.17810864334 31.9188173338 6.17174605161
320 18 2 7.28866961152 32.9489756976 6.17157551804
321 18 2 7.60791864638 33.9111782489 5.95780855342
322 18 2 8.09440184936 34.7229779326 5.53618623671
323 18 2 8.6914223745 35.3156365129 4.93139510666
324 18 2 9.33220819433 35.6403898798 4.18481704981
325 19 1 37.0586735689 12.693527813 7.62825271521
326 19 1 39.7105371322 8.32325054591 5.53390620342
327 19 2 37.1096163809 12.7568890574 8.17667934719
328 19 2 37.1408770582 12.6489704357 9.20664359526
329 19 2 37.1022119479 12.2521340148 10.1629259152
330 19 2 37.0154363881 11.5973998449 10.9612010433
331 19 2 36.9067508561 10.7392946666 11.531545649
332 19 2 36.8043528645 9.75088194433 11.8248116598
333 19 2 36.7358668333 8.71710232702 11.8171059762
334 19 2 36.7258261982 7.72703153469 11.5119682647
335 19 2 36.793437253 6.86576134483 10.9400483258
336 19 2 36.9508285476 6.20664370426 10.1563124472
337 19 2 37.201945403 5.80460489524 9.2350333732
338 19 2 37.5421903059 5.69113915166 8.26302054291
339 19 2 37.9588419597 5.87143804378 7.33170764162
340 19 2 38.4322147965 6.32391728045 6.52881866489
341 19 2 38.9374532643 7.00218405964 5.93037211082
342 19 2 39.446797344 7.83926564825 5.5937520971
343 20 1 35.2129948346 52.6479959347 15.4605307441
344 20 1 32.9665035711 47.6042886556 15.2808506218
345 20 2 35.2147897477 52.9202471881 14.9775632283
346 20 2 35.312498201 53.2295182281 13.9935639939
347 20 2 35.5102836513 53.251210502 12.9767747473
348 20 2 35.7731263994 52.9782769573 12.0124765667
349 20 2 36.0600769475 52.4305248976 11.1811661101
350 20 2 36.3279884361 51.6528105995 10.55121856
351 20 2 36.5354493652 50.7109507829 10.172655408
352 20 2 36.6465581415 49.6857235933 10.0725851297
353 20 2 36.6341954131 48.665505889 10.2527323198
354 20 2 36.4824959258 47.7382179275 10.6892804995
355 20 2 36.1882945983 46.9833096685 11.3350429252
356 20 2 35.7614150115 46.4645191223 12.123763534
357 20 2 35.2237740147 46.2240628011 12.9761560066
358 20 2 34.6073840639 46.2787877963 13.8071305036
359 20 2 33.9514353716 46.6186362112 14.5335493767
360 20 2 33.2987238241 47.2075619115 15.0818049433
361 21 1 48.0702765807 20.7145509034 41.3539046403
362 21 1 49.0264909756 22.5753994996 46.4667206544
363 21 2 47.9366082383 21.1055116026 40.9842235697
364 21 2 47.5308688087 21.9000916569 40.4574711953
365 21 2 46.9653119539 22.7259846674 40.19008348
366 21 2 46.3029491967 23.5223867325 40.2117477295
367 21 2 45.6156156593 24.2311819715 40.5258049356
368 21 2 44.9774224837 24.8022396315 41.1089452538
369 21 2 44.4580017992 25.197983372 41.9133326328
370 21 2 44.1161599401 25.3968162476 42.8709649434
371 21 2 43.9945174054 25.395089212 43.89987219
372 21 2 44.1156241141 25.2074337186 44.9115878577
373 21 2 44.4799040406 24.8654281029 45.8192123974
374 21 2 45.0656165704 24.4147193017 46.5453338887
375 21 2 45.8308380989 23.9108622562 47.0290839286
376 21 2 46.7172832564 23.4142562283 47.2316856242
377 21 2 47.6556174631 22.984639569 47.1399880026
378 21 2 48.5717765912 22.6756447274 46.7676646874
379 22 1 40.7664544306 13.9370781939 23.7654670867
380 22 1 36.0128524523 11.5059040704 25.1834415837
381 22 2 40.8012215749 14.0896600585 23.2335915296
382 22 2 40.7972281823 14.153509035 22.1994941588
383 22 2 40.6891327947 13.9307085008 21.193449766
384 22 2 40.4689191761 13.4477161585 20.3036889158
385 22 2 40.1387903677 12.7547054986 19.6078432386
386 22 2 39.7109678867 11.9209926201 19.1658695153
387 22 2 39.2065777671 11.028718253 19.0145847766
388 22 2 38.6537249787 10.1653608504 19.1643105291
389 22 2 38.0849317339 9.41576316162 19.5979319779
390 22 2 37.5341731753 8.8543990419 20.272457994
391 22 2 37.0337806319 8.53858535985 21.122939641
392 22 2 36.611494705 8.50325771796 22.0683900971
393 22 2 36.2879367868 8.75778616586 23.0191663872
394 22 2 36.074729475 9.28512114529 23.885140101
395 22 2 35.9734372049 10.0433475118 24.5839123559
396 22 2 35.9754236545 10.9695049881 25.0483242359
397 23 1 52.8793703942 26.4641574651 25.9796282144
398 23 1 50.8322281721 22.6423752429 22.5560072615
399 23 2 52.694018551 26.4337959094 26.501264542
400 23 2 52.1365761692 26.3713706864 27.3723621793
401 23 2 51.3496710583 26.2905660062 28.041466776
402 23 2 50.404149606 26.1797485375 28.4503172167
403 23 2 49.3853156553 26.0300205342 28.5643738568
404 23 2 48.3851552878 25.8360308417 28.3759667187
405 23 2 47.4939525378 25.5964626399 27.9049945897
406 23 2 46.7920602439 25.3141534681 27.197111301
407 23 2 46.3425761028 24.9958365907 26.3195645024
408 23 2 46.1855914825 24.6515272782 25.3550662196
409 23 2 46.3345372016 24.2936099422 24.3942538734
410 23 2 46.7749593458 23.9357093293 23.5274289215
411 23 2 47.4658367039 23.5914486616 22.8363261216
412 23 2 48.3433197412 23.2732079169 22.3866636272
413 23 2 49.326550314 22.9909954264 22.222152953
414 23 2 50.3250316738 22.7515356423 22.3605147875
415 24 1 16.4943453754 23.8164888993 6.92065312364
416 24 1 12.5568663357 27.0488867568 4.78386722811
417 24 2 17.00405152 23.9069559855 6.72216649794
418 24 2 17.8494812443 24.0578778987 6.14257943068
419 24 2 18.4884338749 24.1893165723 5.33764873668
420 24 2 18.8628190864 24.3084206862 4.37895173832
421 24 2 18.9386611665 24.4234631822 3.35208114561
422 24 2 18.7091958115 24.543087208 2.3488435095
423 24 2 18.1954866744 24.675518317 1.45889130011
424 24 2 17.4445054691 24.8278147311 0.761551323675
425 24 2 16.5248506245 25.0052240029 0.31859429623
426 24 2 15.5204947207 25.2107047151 0.168604607903
427 24 2 14.5231306131 25.4446568134 0.323463458897
428 24 2 13.6238138735 25.7048851531 0.767265919844
429 24 2 12.9046633183 25.9867995802 1.45777062361
430 24 2 12.4313760976 26.2838333117 2.330249953
431 24 2 12.2472395756 26.5880414805 3.30338979007
432 24 2 12.3691858034 26.8908252887 4.28670108065
433 25 1 39.6864691112 20.7742661685 12.390467176
434 25 1 41.9262973579 16.3475501544 9.96037544574
435 25 2 39.1560627604 20.7149852276 12.5405886639
436 25 2 38.1383969069 20.5297093475 12.5995723059
437 25 2 37.1678604411 20.2474278343 12.3719187819
438 25 2 36.332605497 19.8756577045 11.8844906742
439 25 2 35.7084536596 19.4300726231 11.1878283239
440 25 2 35.3519850299 18.9330742905 10.3515432143
441 25 2 35.2953810998 18.4117505874 9.45797306997
442 25 2 35.5434914955 17.8954065873 8.59467699317
443 25 2 36.0733919469 17.4128934768 7.84645468594
444 25 2 36.8364737732 16.9899788475 7.28761718376
445 25 2 37.7628744347 16.6469980487 6.97521360329
446 25 2 38.7678453165 16.3970006746 6.94383126791
447 25 2 39.7594763378 16.244561129 7.20244316561
448 25 2 40.6470733108 16.1853616801 7.7335900851
449 25 2 41.3494244727 16.2065860106 8.49497197631
450 25 2 41.8022027218 16.2880873908 9.42330348682
451 26 1 31.6092390703 32.9150655025 46.2497684885
452 26 1 35.9579881777 30.2825748282 44.087278
453 26 2 31.7065621554 33.4382405374 46.4053245492
454 26 2 32.0720588833 34.3202661579 46.8076837887
455 26 2 32.6560125072 35.0126996832 47.3106589268
456 26 2 33.4169159197 35.4585270888 47.8544547822
457 26 2 34.2971335136 35.623211839 48.3755554746
458 26 2 35.2281545128 35.4978427998 48.8125137269
459 26 2 36.1368375464 35.0999464646 49.1115516209
460 26 2 36.9520772897 34.4718894618 49.2314623101
461 26 2 37.6112855238 33.6770169492 49.147365914
462 26 2 38.0660958852 32.7938788725 48.8529772527
463 26 2 38.2867723299 31.9090703477 48.3611787243
464 26 2 38.2649194948 31.1093387479 47.7028461086
465 26 2 38.0142479122 30.4736769114 46.9240343223
466 26 2 37.569324332 30.0661231564 46.0817796365
467 26 2 36.9824210541 29.9299243592 45.2389009731
468 26 2 36.3187514487 30.0835941169 44.4582741277
469 27 1 27.3541118156 11.1250566765 2.81070762748
470 27 1 29.139131111 11.0784778824 8.03847269416
471 27 2 26.9726389407 11.5111376794 2.69756394465
472 27 2 26.153125781 12.144701998 2.6764820457
473 27 2 25.2665246344 12.6260247095 2.91252624817
474 27 2 24.3999245861 12.9260944113 3.39461808741
475 27 2 23.6385916746 13.0324204285 4.08925251428
476 27 2 23.0581971201 12.9501713051 4.94355179087
477 27 2 22.7179200954 12.7017037051 5.89008515497
478 27 2 22.655053702 12.3245246623 6.85301495379
479 27 2 22.8816058042 11.8678729147 7.75500904337
480 27 2 23.3832045435 11.3882309249 8.52428940675
481 27 2 24.1204082958 10.9441766544 9.10117452843
482 27 2 25.0323006698 10.5910443395 9.44351920493
483 27 2 26.0420428732 10.3758809231 9.53055596751
484 27 2 27.0638773633 10.3331578517 9.36478798139
485 27 2 28.0109444177 10.4816290955 8.97176088893
486 27 2 28.8031991661 10.8226217736 8.39773439266
487 28 1 9.69654197245 9.93585571208 30.7587833766
488 28 1 6.93139644594 6.49418382531 34.0794543785
489 28 2 9.64095949447 10.4736960331 30.8813393447
490 28 2 9.3074738776 11.4276649897 31.1097700436
491 28 2 8.70324222959 12.2385246514 31.3352932927
492 28 2 7.88332266625 12.8320072965 31.5565629715
493 28 2 6.92243268039 13.1536585378 31.7726206611
494 28 2 5.90813884204 13.1738006938 31.9829830014
495 28 2 4.93287533966 12.8902378303 32.1876857482
496 28 2 4.08551885091 12.328455914 32.3872805143
497 28 2 3.44328767099 11.5392998345 32.5827844909
498 28 2 3.0647034715 10.5943390287 32.7755877342
499 28 2 2.9842572064 9.57934411794 32.9673264646
500 28 2 3.20926535381 8.58646914497 33.1597339302
501 28 2 3.71920303854 7.70585197936 33.3544824257
502 28 2 4.46757481964 7.01739849159 33.5530308672
503 28 2 5.38615262553 6.58349934648 33.7564918157
504 28 2 6.39119456042 6.44334326091 33.9655300705
505 29 1 9.27693103702 45.144104346 49.4578335918
506 29 1 12.4726150898 42.267681769 45.9891468584
507 29 2 8.74753853634 44.9806099179 49.4777016629
508 29 2 7.77222870797 44.6918623521 49.2806088088
509 29 2 6.89481972708 44.4319393421 48.7947657062
510 29 2 6.19704780141 44.2054448536 48.0631479115
511 29 2 5.74427570129 44.0139359317 47.1511326872
512 29 2 5.57953511773 43.8557807808 46.1405400395
513 29 2 5.71960443888 43.7263074981 45.1221750433
514 29 2 6.15347944476 43.6182299052 44.1875512022
515 29 2 6.84337631247 43.5223116638 43.4205492373
516 29 2 7.72817551073 43.4282081431 42.8897715839
517 29 2 8.72899268172 43.3254093056 42.6422894625
518 29 2 9.75636873953 43.2041976685 42.6993524631
519 29 2 10.7184238267 43.0565340264 43.0544517017
520 29 2 11.5292319176 42.8767902036 43.6739130879
521 29 2 12.1166527461 42.6622620471 44.4999666282
522 29 2 12.4289071981 42.4134159029 45.4560120063
523 30 1 34.9136074132 46.0766281579 35.5806779663
524 30 1 34.987312471 47.5422583115 40.9065100026
525 30 2 34.5439936127 46.3478178758 35.2688713542
526 30 2 33.7038853913 46.7929199698 34.8571040491
527 30 2 32.7384819222 47.1373311793 34.7060177438
528 30 2 31.7367628432 47.3673943167 34.8367076473
529 30 2 30.7910178633 47.4798747152 35.2445858202
530 30 2 29.9884348015 47.4822550606 35.8997993535
531 30 2 29.4031526511 47.3920533641 36.7499513808
532 30 2 29.0895040077 47.2352262427 37.7248769131
533 30 2 29.077062799 47.0438030427 38.7430381901
534 30 2 29.3679486999 46.8529664507 39.7189566288
535 30 2 29.9366339303 46.6978456853 40.5710039679
536 30 2 30.7322700433 46.610314563 41.2288424659
537 30 2 31.683322626 46.6160862852 41.6398359981
538 30 2 32.7040914693 46.7323697482 41.7738476985
539 30 2 33.7025219137 46.9663009985 41.625986855
540 30 2 34.5885953847 47.3142928013 41.2170546842
541 31 1 21.4484052991 14.1160714688 15.9487388923
542 31 1 23.6811739729 9.23383776353 14.6462300985
543 31 2 21.2339918568 14.1461556874 16.4591342328
544 31 2 20.7243168107 14.0036822065 17.3498545401
545 31 2 20.1250372967 13.6065734424 18.0959233739
546 31 2 19.5034612164 12.9807850879 18.6395060475
547 31 2 18.9289287438 12.1731163696 18.9412239464
548 31 2 18.4664921539 11.2469444229 18.9837437842
549 31 2 18.1709864815 10.2764476358 18.7733574847
550 31 2 18.0820314544 9.33984448714 18.3394086902
551 31 2 18.2204202613 8.5122641411 17.7316181669
552 31 2 18.5862243078 7.85889862483 17.01555189
553 31 2 19.1587867086 7.42906074936 16.2666448803
554 31 2 19.8986051067 7.25168937871 15.5633255034
555 31 2 20.7509322081 7.33271172978 14.9798669343
556 31 2 21.6507658513 7.65450312235 14.5796173554
557 31 2 22.5287737804 8.17749342158 14.4092259396
558 31 2 23.3176130949 8.84377375006 14.4943909024
559 32 1 53.4096159609 28.3857761783 13.3949239511
560 32 1 50.984308396 24.9929088446 17.0176750512
561 32 2 53.3159739839 28.9253495263 13.4813726085
562 32 2 52.9159451474 29.865742526 13.6519244984
563 32 2 52.2568109905 30.643481375 13.8366254922
564 32 2 51.3990664624 31.1886822123 14.0378228645
565 32 2 50.4213093166 31.4526563951 14.2563602891
566 32 2 49.4130761363 31.4123483386 14.4915009405
567 32 2 48.4666813136 31.0724369709 14.7409946533
568 32 2 47.6688028395 30.4649092608 15.001283019
569 32 2 47.0925818369 29.646144692 15.2678237253
570 32 2 46.7909559426 28.6917764227 15.5355045758
571 32 2 46.7918341832 27.6897975265 15.799109453
572 32 2 47.0955531418 26.7325406579 16.0537937534
573 32 2 47.6748462796 25.9082621784 16.2955259604
574 32 2 48.4773292081 25.2930978247 16.5214551058
575 32 2 49.4302743855 24.94412314 16.7301706286
576 32 2 50.4472400384 24.8941511902 16.9218309433
577 33 1 3.12337178267 8.42993713649 12.2887315379
578 33 1 4.45307085619 10.6197635649 17.1830702725
579 33 2 3.45090087857 8.58202593896 11.8680472435
580 33 2 4.01970799808 9.08320660355 11.1618415982
581 33 2 4.50135916963 9.82558990003 10.6230195486
582 33 2 4.86921091925 10.7418911995 10.3091293925
583 33 2 5.10699228612 11.7489737119 10.2572174873
584 33 2 5.21028787717 12.7554261824 10.4804515726
585 33 2 5.18694031831 13.6698947824 10.9669205666
586 33 2 5.05633542012 14.4094097678 11.6807202291
587 33 2 4.84763521296 14.9069479484 12.565225737
588 33 2 4.59711990589 15.1175416733 13.5482528857
589 33 2 4.34488104255 15.0223775117 14.5486374864
590 33 2 4.13116726413 14.6305110468 15.4836332649
591 33 2 3.9927157533 13.9780414839 16.2764539634
592 33 2 3.95940373821 13.1248213043 16.8632722025
593 33 2 4.05152526296 12.149000871 17.1990371766
594 33 2 4.27794143977 11.1399052328 17.2615809141