LAMMPS input file for bananas

4320 atoms

2 atom types

0 80.0 xlo xhi
0 80.0 ylo yhi
0 80.0 zlo zhi

Masses

 1 1
 2 1

Atoms

1 1 1 40.7644293267 3.68439824933 16.8603518978
2 1 1 45.5118133824 5.80839082274 14.9978290827
3 1 2 40.4339230658 3.4723679077 16.4689565302
4 1 2 39.8526886277 3.28337848209 15.6323565444
5 1 2 39.3760026553 3.3711638289 14.7166523194
6 1 2 39.0600423861 3.71953221453 13.7934737953
7 1 2 38.9463353398 4.28854045784 12.9351321746
8 1 2 39.057974195 5.01813464443 12.2080289494
9 1 2 39.3975119539 5.83362388034 11.6666035828
10 1 2 39.9467292426 6.65248816745 11.3483714974
11 1 2 40.6682949587 7.39189988076 11.2705046446
12 1 2 41.5091689011 7.97627328499 11.4282663276
13 1 2 42.4054362428 8.34415397238 11.795442938
14 1 2 43.2881331966 8.45382026764 12.3267332566
15 1 2 44.0895328797 8.2870860472 12.9618775386
16 1 2 44.7493184384 7.85095835575 13.6311500275
17 1 2 45.2200807678 7.17699873281 14.2617142725
18 1 2 45.4716397254 6.31844646281 14.7842619753
19 2 1 61.6793263237 73.8099691802 63.3870722856
20 2 1 56.7927025576 71.7222192385 61.8770393686
21 2 2 61.7277141944 74.3588977224 63.3260996886
22 2 2 61.7384505959 75.3406691869 62.9952529984
23 2 2 61.630325169 76.1916817766 62.4142741044
24 2 2 61.3957001807 76.840419615 61.6412667674
25 2 2 61.0384679951 77.2338036283 60.7518376276
26 2 2 60.5736962944 77.3420295616 59.8322048613
27 2 2 60.0262547005 77.1612845566 58.9713396247
28 2 2 59.4285479748 76.7140946838 58.2528565707
29 2 2 58.8175624112 76.0472717512 57.7473925969
30 2 2 58.2314946342 75.2276465333 57.5061684808
31 2 2 57.7062700788 74.3359773243 57.5563202436
32 2 2 57.2722684827 73.4595890358 57.8984257735
33 2 2 56.9515548549 72.6844137643 58.5064521532
34 2 2 56.7558683088 72.0871583102 59.330128491
35 2 2 56.6855520733 71.7283125582 60.2995279775
36 2 2 56.729522209 71.646635986 61.3314415281
37 3 1 26.281408918 46.3183743443 16.3844813749
38 3 1 21.7544937703 43.1569984501 16.559788997
39 3 2 26.2920020549 46.7318575246 16.753671073
40 3 2 26.0975956446 47.5506693615 17.3579916291
41 3 2 25.6345317114 48.3565069973 17.8158644386
42 3 2 24.9370345881 49.0676205299 18.100935163
43 3 2 24.0606965661 49.6108939061 18.2025999119
44 3 2 23.0774108069 49.9285092543 18.1269717595
45 3 2 22.0688184721 49.983216829 17.8963235539
46 3 2 21.1188673504 49.7617302257 17.5470578071
47 3 2 20.3061602402 49.2759374009 17.1263887024
48 3 2 19.6967905155 48.5618171166 16.6880386488
49 3 2 19.3383178909 47.6761595729 16.2873416264
50 3 2 19.2554334809 46.6913901323 15.9761996419
51 3 2 19.4477092708 45.6889679417 15.798352
52 3 2 19.8896371292 44.7519611494 15.7853885822
53 3 2 20.5329538059 43.9574754645 15.9538705136
54 3 2 21.3110399982 43.3696261785 16.3038206607
55 4 1 61.1826692385 55.5143528693 44.6835783429
56 4 1 63.030338693 54.5274949208 39.5718056526
57 4 2 60.6641185047 55.3443083521 44.7814128291
58 4 2 59.6476643008 55.1442138682 44.7661465257
59 4 2 58.6508785118 55.0986915003 44.4872275124
60 4 2 57.7640350493 55.1953423452 43.9603335017
61 4 2 57.067386876 55.4088087916 43.2237444642
62 4 2 56.623851162 55.7030857981 42.334853512
63 4 2 56.4732745535 56.0348026569 41.3649356692
64 4 2 56.628801257 56.3571761177 40.3926513448
65 4 2 57.0756749805 56.624274556 39.4968766462
66 4 2 57.7725839296 56.7952045177 38.7495140327
67 4 2 58.6554262675 56.8378380485 38.2089385989
68 4 2 59.643152826 56.7317410707 37.9146773407
69 4 2 60.6451545205 56.4700358951 37.8838063751
70 4 2 61.5695211258 56.0600281037 38.109394498
71 4 2 62.3314186477 55.5225406656 38.5611349447
72 4 2 62.8608217147 54.890015979 39.1881077708
73 5 1 6.31781739621 28.4013326421 61.3258421062
74 5 1 8.214404233 30.8356489202 56.7438061297
75 5 2 5.94958664148 28.6996793339 61.6135519442
76 5 2 5.42361722772 29.4265120891 62.13174142
77 5 2 5.14136906918 30.321281102 62.5712575195
78 5 2 5.11836969927 31.310645466 62.8779808402
79 5 2 5.34651681724 32.3126421612 63.0098956863
80 5 2 5.79481679124 33.2441567644 62.9409196872
81 5 2 6.41220964499 34.0284991069 62.663281136
82 5 2 7.13222303817 34.602393378 62.1882273596
83 5 2 7.87903104258 34.9217455463 61.5449995553
84 5 2 8.57436547281 34.9656624128 60.7781675332
85 5 2 9.14464982217 34.73835597 59.9435672976
86 5 2 9.52770556461 34.2687594902 59.1032117446
87 5 2 9.67841956118 33.6078903349 58.3196383518
88 5 2 9.57285600207 32.8241998588 57.6502090546
89 5 2 9.21043809171 31.9973342517 57.1418818595
90 5 2 8.61400062212 31.2108750013 56.8269307468
91 6 1 19.7448530931 47.9584139268 43.0145294969
92 6 1 19.4926443235 42.7378048716 44.8032784706
93 6 2 19.5917587584 48.3403127147 43.3861435823
94 6 2 19.1164025848 48.9163038404 44.1042805765
95 6 2 18.4401001028 49.2615633814 44.8091641225
96 6 2 17.63174367 49.3373750223 45.4527963808
97 6 2 16.7722620088 49.129581904 45.9927624031
98 6 2 15.9472437694 48.6498769828 46.3960961414
99 6 2 15.2391363533 47.9347372493 46.6422852153
100 6 2 14.7197310529 47.0420989481 46.7251405604
101 6 2 14.4436194671 46.0460768435 46.6533605454
102 6 2 14.4432176229 45.0302088575 46.4497381384
103 6 2 14.7258113414 44.0798418109 46.1490833894
104 6 2 15.2728921546 43.274352289 45.7950505869
105 6 2 16.0418443024 42.679911678 45.4361592865
106 6 2 16.9698290459 42.34345482 45.1213718826
107 6 2 17.9795122501 42.2884020274 44.8956308176
108 6 2 18.9861131835 42.5125243843 44.795762198
109 7 1 18.5881640327 27.1737906923 73.3058524174
110 7 1 16.2588548714 23.4726060134 76.6812845179
111 7 2 18.5820529872 27.6960071658 73.4919550719
112 7 2 18.341982853 28.628616981 73.8741268586
113 7 2 17.8276757082 29.4281727984 74.2860111468
114 7 2 17.0892612622 30.0192858331 74.7088343927
115 7 2 16.1972960056 30.3455663025 75.1228259959
116 7 2 15.2363321751 30.3747632046 75.5090203363
117 7 2 14.297211043 30.1017039105 75.8509854403
118 7 2 13.4687829781 29.5487656357 76.1363207108
119 7 2 12.8298089717 28.7638358168 76.3577872089
120 7 2 12.4417817844 27.8159472995 76.5139674632
121 7 2 12.3433210447 26.7889861794 76.6093946694
122 7 2 12.5466531734 25.7740458084 76.6541395007
123 7 2 13.0364969781 24.8611238793 76.6628921937
124 7 2 13.7714564928 24.1309193767 76.6536235719
125 7 2 14.6877941096 23.64747708 76.6459470538
126 7 2 15.7052400915 23.452350053 76.6593309415
127 8 1 22.7312497161 63.8901634764 11.7801092073
128 8 1 27.846440235 65.9434832003 11.4103861643
129 8 2 22.6873539581 63.3500039309 11.6631373482
130 8 2 22.7256191236 62.4000526017 11.2513385376
131 8 2 22.9302473012 61.59750089 10.62885314
132 8 2 23.2986837004 61.0084978658 9.86023095168
133 8 2 23.8134428493 60.6797282068 9.02334174686
134 8 2 24.4437023483 60.6341570151 8.20227765579
135 8 2 25.1481122495 60.8689366094 7.47968839191
136 8 2 25.8785639943 61.3556660836 6.92924795136
137 8 2 26.5845753795 62.0429799735 6.60893942515
138 8 2 27.2178918754 62.8612300813 6.55576999539
139 8 2 27.736884897 63.7288337233 6.78239782955
140 8 2 28.1103461387 64.5597097726 7.27597832232
141 8 2 28.3203321275 65.2711247245 7.99933484706
142 8 2 28.3637997227 65.791233634 8.89434730596
143 8 2 28.2528834903 66.0656285905 9.88724962159
144 8 2 28.0137896694 66.0622978536 10.8953533177
145 9 1 45.88963621 49.4753440097 25.4312398511
146 9 1 46.6240634522 49.74026604 19.9623803717
147 9 2 45.5132150733 49.8284424133 25.6337496862
148 9 2 44.9313770389 50.6470491392 25.8883032979
149 9 2 44.5424520476 51.6053490548 25.9503406571
150 9 2 44.368444703 52.6156535385 25.8004863766
151 9 2 44.4117704396 53.5855338911 25.4386784256
152 9 2 44.6550353625 54.4262459649 24.8841737841
153 9 2 45.0626216541 55.0608189557 24.1737932203
154 9 2 45.5839340437 55.4310710855 23.3585651761
155 9 2 46.1580114302 55.5029127167 22.499074661
156 9 2 46.7190833245 55.2694535306 21.6599410905
157 9 2 47.202564653 54.7516305625 20.903928399
158 9 2 47.5509425151 53.9962998461 20.2862242747
159 9 2 47.7190183299 53.0719656114 19.8494099499
160 9 2 47.6780275661 52.0625363078 19.619579035
161 9 2 47.4182615525 51.0596765725 19.6039591558
162 9 2 46.9499523971 50.1544522441 19.7902531747
163 10 1 35.8876302078 64.921906501 38.9935821627
164 10 1 33.1936509165 61.4102025492 42.2993955261
165 10 2 35.9867091842 65.420875661 39.2140242684
166 10 2 35.9422418916 66.3468545905 39.6766641857
167 10 2 35.6072961719 67.1863053816 40.1832051468
168 10 2 35.0165037646 67.8581843304 40.7056924872
169 10 2 34.2278161507 68.2967214582 41.2147180724
170 10 2 33.3172224306 68.4574152702 41.6821007709
171 10 2 32.3718231202 68.3210889467 42.083455089
172 10 2 31.4818911723 67.8956382597 42.4004138436
173 10 2 30.7326438374 67.2153118943 42.6223022815
174 10 2 30.1964753399 66.3375897722 42.7471110546
175 10 2 29.9263583375 65.3379439109 42.7816793671
176 10 2 29.9510156053 64.3029593509 42.7410715998
177 10 2 30.2723020315 63.3224421604 42.6472042323
178 10 2 30.8650355493 62.4812338527 42.5268482143
179 10 2 31.6792924151 61.8514783086 42.4091888654
180 10 2 32.6449576241 61.4860460548 42.3231657108
181 11 1 26.6823658542 19.1764114891 9.93351770675
182 11 1 23.5783886436 16.1803208249 13.3841346472
183 11 2 26.6578857751 19.7244968759 10.0134221658
184 11 2 26.3798296001 20.7122516893 10.1565137561
185 11 2 25.8224824126 21.5743993785 10.2962115936
186 11 2 25.0359098156 22.2334741525 10.4389491254
187 11 2 24.0910706955 22.6305197741 10.5908827386
188 11 2 23.0733495095 22.7304632626 10.7573306219
189 11 2 22.0747737202 22.5253117032 10.9422880274
190 11 2 21.1856257384 22.0348807787 11.1480631132
191 11 2 20.4862139228 21.3049886239 11.3750665621
192 11 2 20.0395526877 20.4032796246 11.6217741478
193 11 2 19.8856189074 19.4130588129 11.884865665
194 11 2 20.0377081312 18.4256988357 12.1595275565
195 11 2 20.4812227294 17.5323115828 12.4398916566
196 11 2 21.1750024286 16.8154435812 12.7195700586
197 11 2 22.0550759599 16.3415520999 12.9922373552
198 11 2 23.04049187 16.1549477477 13.2522071826
199 12 1 4.22472332432 52.8448084227 72.4481585315
200 12 1 8.91041244597 54.5708935389 70.0853342282
201 12 2 3.82518222905 53.2277238005 72.4816893333
202 12 2 3.24967102756 54.0750280699 72.637613492
203 12 2 2.9438096612 55.0327985679 72.8877624654
204 12 2 2.93752819927 56.0229863354 73.1926210219
205 12 2 3.23345080345 56.9645876658 73.5076872975
206 12 2 3.80665654252 57.7810273764 73.787529022
207 12 2 4.60695086865 58.4071384316 73.989924549
208 12 2 5.56344071623 58.795101744 74.0797112457
209 12 2 6.59099621536 58.9188047565 74.0319904734
210 12 2 7.59801005192 58.7762215319 73.8343970316
211 12 2 8.49474722946 58.3895974119 73.4882262133
212 12 2 9.20152417424 57.8034214137 73.0083157418
213 12 2 9.65597168001 57.0803711746 72.4216933527
214 12 2 9.81871969448 56.2956000531 71.7651132876
215 12 2 9.67698579435 55.5298871015 71.0817062432
216 12 2 9.24574026902 54.8622742704 70.4170481237
217 13 1 18.7443734612 33.1265661668 25.0919491289
218 13 1 14.6004931821 31.0652089166 28.108081351
219 13 2 18.756772945 33.6798858619 25.0593124028
220 13 2 18.5538155655 34.6886901522 24.9385969642
221 13 2 18.0696947115 35.5881330018 24.7651623363
222 13 2 17.3432342361 36.3013052171 24.5725731875
223 13 2 16.4353466012 36.768275675 24.3961400699
224 13 2 15.4234808692 36.9515538842 24.2697009559
225 13 2 14.3945634282 36.8395071441 24.2225369988
226 13 2 13.4370748841 36.4474208337 24.2767036326
227 13 2 12.6329852897 35.8161051901 24.4450202792
228 13 2 12.0502827935 35.0081755651 24.7299018918
229 13 2 11.7367767017 34.1023452027 25.1231388384
230 13 2 11.7157397879 33.1862507375 25.6066451881
231 13 2 11.9837870416 32.3484643495 26.154107195
232 13 2 12.5111842032 31.6704206468 26.733381726
233 13 2 13.2445579623 31.2189941189 27.3094260217
234 13 2 14.1117607919 31.0404037052 27.8474917497
235 14 1 53.7377409158 41.5315689908 61.3171897411
236 14 1 58.2141186848 44.1917421073 63.1620507442
237 14 2 53.7243315221 41.4491610957 60.769092382
238 14 2 53.746768807 41.5253880768 59.73606962
239 14 2 53.8444802013 41.8904997965 58.7713956198
240 14 2 54.0269833166 42.5073176357 57.9591897485
241 14 2 54.2960672259 43.3157206355 57.3696743112
242 14 2 54.6456293942 44.2381253615 57.0527739748
243 14 2 55.0622319083 45.1865574266 57.0335652685
244 14 2 55.5263263066 46.0706701213 57.309990925
245 14 2 56.0140353693 46.805979275 57.8530473952
246 14 2 56.4993294629 47.321563762 58.6094284438
247 14 2 56.9563990721 47.5665297727 59.5063838703
248 14 2 57.3620072678 47.5146496484 60.4583504955
249 14 2 57.6976076911 47.166752462 61.3747510164
250 14 2 57.9510350046 46.5506484506 62.1682498854
251 14 2 58.11761373 45.7185941866 62.762713712
252 14 2 58.2005844061 44.7425295306 63.1001506178
253 15 1 25.1266520447 28.7004596973 45.2685085989
254 15 1 25.5581133962 23.2285644303 45.8931639839
255 15 2 24.7967794764 28.9522442409 45.6361636279
256 15 2 24.0272768901 29.2556639854 46.260064453
257 15 2 23.12455537 29.3100048093 46.7656244821
258 15 2 22.1748299707 29.1005678517 47.122846875
259 15 2 21.2686000249 28.6366968918 47.3152553701
260 15 2 20.4924003709 27.9509266875 47.3413960524
261 15 2 19.9209139333 27.0960175203 47.2149698734
262 15 2 19.6101645745 26.1401462358 46.9635838463
263 15 2 19.5924106688 25.1606921068 46.6262347405
264 15 2 19.8732048381 24.2371839193 46.2497546304
265 15 2 20.4308878453 23.4440511364 45.8845422767
266 15 2 21.2185627756 22.8438398514 45.579969414
267 15 2 22.1683695654 22.4815118787 45.3798806499
268 15 2 23.1976702652 22.3803466047 45.3185971452
269 15 2 24.2165812682 22.5398191338 45.4177883326
270 15 2 25.1361659606 22.9356481313 45.6844968053
271 16 1 67.0851977148 58.2653172337 19.6621663738
272 16 1 62.791040349 61.2938346479 21.366949601
273 16 2 67.5547936173 58.3454175105 19.9457950431
274 16 2 68.3874538295 58.7221692982 20.433837124
275 16 2 69.0895591711 59.3646138785 20.8434260174
276 16 2 69.590534546 60.216256093 21.1551618405
277 16 2 69.8381373169 61.2015329777 21.3585637566
278 16 2 69.803219082 62.2327011258 21.453025275
279 16 2 69.4823824744 63.2178342644 21.4478695311
280 16 2 68.8982908223 64.0692020886 21.3614995073
281 16 2 68.0976024479 64.7112666446 21.2197206509
282 16 2 67.1467178854 65.0875674119 21.0533887759
283 16 2 66.1257276505 65.1658675291 20.8955976385
284 16 2 65.1211122033 64.9410920976 20.7786625293
285 16 2 64.2178594858 64.4357907448 20.7311748214
286 16 2 63.4917184981 63.6980822864 20.7753959427
287 16 2 63.0022949796 62.7972688243 20.9252283064
288 16 2 62.787618505 61.8175190457 21.1849481434
289 17 1 57.5763592648 42.4606250172 37.2307491909
290 17 1 58.8796701159 38.6912332802 41.0531905337
291 17 2 57.4813091859 42.9700179338 37.4278936229
292 17 2 57.1608055794 43.8086921475 37.9449555271
293 17 2 56.6920838934 44.4344572681 38.6247849219
294 17 2 56.1311194126 44.7916345992 39.4192616154
295 17 2 55.5422951056 44.8490265035 40.2698156208
296 17 2 54.9925332899 44.6027599839 41.112765654
297 17 2 54.5451958412 44.0766396973 41.8851235129
298 17 2 54.2543089281 43.3199782233 42.5303352834
299 17 2 54.1596386709 42.4031013546 43.0034360773
300 17 2 54.2830665661 41.4109380889 43.2751484622
301 17 2 54.6265950467 40.4352795778 43.3345510206
302 17 2 55.1721649654 39.5664126086 43.1900738086
303 17 2 55.883301638 38.884890205 42.8687299781
304 17 2 56.7084394131 38.4541894342 42.4136536007
305 17 2 57.5856217437 38.314925642 41.8801681123
306 17 2 58.4481483604 38.4811504727 41.3307437296
307 18 1 61.8417124026 22.7463997983 49.8241648924
308 18 1 60.1201152834 17.5974798696 48.8030292556
309 18 2 62.2335913968 22.9342632332 49.4798978859
310 18 2 63.0720841592 23.0822219807 48.8895690727
311 18 2 63.9760366592 22.9488983238 48.4011587008
312 18 2 64.8573712197 22.5390371863 48.0423924095
313 18 2 65.6300717281 21.8825891446 47.829179127
314 18 2 66.2180237758 21.031980512 47.7641610136
315 18 2 66.561952282 20.057334821 47.8364726361
316 18 2 66.62482426 19.0400812503 48.022731323
317 18 2 66.3952242741 18.0655325729 48.2891684322
318 18 2 65.8883949265 17.2151091252 48.5947072729
319 18 2 65.144847535 16.5589175603 48.894707136
320 18 2 64.2266696339 16.1493608146 49.1450321753
321 18 2 63.2118658623 16.0163617198 49.306074272
322 18 2 62.1872480485 16.1646356168 49.346363209
323 18 2 61.2405225451 16.5732605654 49.2454350969
324 18 2 60.4522960285 17.1975843225 48.9956976028
325 19 1 47.4446437636 70.2723188673 16.1470970985
326 19 1 44.6125956794 66.96317013 19.5451891138
327 19 2 47.3973826057 70.8139888637 16.2554556976
328 19 2 47.0786509748 71.7788300675 16.4577960297
329 19 2 46.4868965895 72.6049245411 16.6598966963
330 19 2 45.6759685441 73.2171154401 16.8625491564
331 19 2 44.7196930262 73.5597426593 17.0664945746
332 19 2 43.7051442568 73.6017161025 17.2723562658
333 19 2 42.7247079084 73.3393494615 17.4805828816
334 19 2 41.8676603972 72.7966962134 17.6914075172
335 19 2 41.2120315767 72.0233572104 17.9048264651
336 19 2 40.8174925253 71.0899596946 18.1205995534
337 19 2 40.7199166865 70.0817198139 18.3382720363
338 19 2 40.928110101 69.0906753976 18.5572160435
339 19 2 41.423008759 68.2072969544 18.7766878086
340 19 2 42.1594162342 67.5122415274 18.9958954613
341 19 2 43.0701232171 67.0690010201 19.2140712047
342 19 2 44.0720334641 66.9181150789 19.4305412975
343 20 1 66.7278075043 55.6469821476 22.2885649038
344 20 1 67.4919187601 50.1936256317 22.7301843784
345 20 2 66.2782641798 55.7973332082 22.0010115243
346 20 2 65.5237503306 55.9289777367 21.3032805011
347 20 2 64.9299080474 55.8453890311 20.4584051954
348 20 2 64.5381058969 55.5409101167 19.5488813218
349 20 2 64.3712970278 55.0300175705 18.6630971389
350 20 2 64.4319270526 54.3460020205 17.8872770962
351 20 2 64.7017111364 53.537933794 17.2976227055
352 20 2 65.1433006109 52.6661902877 16.9533669771
353 20 2 65.7036872056 51.7969527304 16.8913754891
354 20 2 66.3190346101 50.9961739401 17.1227861885
355 20 2 66.920496983 50.323566901 17.6319941972
356 20 2 67.4404940665 49.827162085 18.3780741548
357 20 2 67.818870946 49.5389296023 19.2985104557
358 20 2 68.0083810103 49.4718652112 20.3148953799
359 20 2 67.9789923532 49.6188057897 21.3400757467
360 20 2 67.7206251023 49.9530822346 22.2860966943
361 21 1 24.9052642705 52.5897477958 23.5689259273
362 21 1 21.3837784818 48.5212188583 22.3182456382
363 21 2 24.6793781813 53.0207586586 23.8346075015
364 21 2 24.1000409289 53.8171910083 24.1563432186
365 21 2 23.3529503176 54.5306431213 24.2356635322
366 21 2 22.49367566 55.0873495541 24.0769971476
367 21 2 21.5880115445 55.4278318129 23.706464622
368 21 2 20.7059808347 55.5123196593 23.1694975448
369 21 2 19.9154522725 55.3243760616 22.52669757
370 21 2 19.2759544235 54.872395386 21.8483127374
371 21 2 18.8332498075 54.1888382725 21.2078345514
372 21 2 18.6151637671 53.3272729347 20.6752994268
373 21 2 18.6290482622 52.3574925599 20.3109050572
374 21 2 18.8611117581 51.3591538469 20.1595235554
375 21 2 19.2776762876 50.4145165105 20.2466114808
376 21 2 19.8282471073 49.6009455289 20.5758895419
377 21 2 20.4501151586 48.983859532 21.1290034637
378 21 2 21.0740728308 48.6107680688 21.8671969305
379 22 1 37.5603363593 22.0277403772 27.9347438017
380 22 1 35.3370293785 27.017345913 28.7585967784
381 22 2 37.8465811252 21.9745730746 27.4629188766
382 22 2 38.1875795485 21.9668705918 26.4845985006
383 22 2 38.257254 22.0929633193 25.4585887023
384 22 2 38.0579102999 22.3584646312 24.4771503936
385 22 2 37.6163745539 22.7562811817 23.628481914
386 22 2 36.9815480254 23.2672594447 22.988679988
387 22 2 36.2199499159 23.8619315065 22.6148037118
388 22 2 35.4096543179 24.5032009871 22.5396737698
389 22 2 34.6331739696 25.1497242767 22.7688809161
390 22 2 33.9699394397 25.7596788946 23.2802763929
391 22 2 33.4890592431 26.2945754967 24.0259907301
392 22 2 33.2430207848 26.7227660767 24.9367969199
393 22 2 33.2629062728 27.0223285968 25.9284202734
394 22 2 33.5555596584 27.1830651232 26.909219833
395 22 2 34.1029628279 27.2074313403 27.7885412013
396 22 2 34.8638779057 27.1103127217 28.4849794465
397 23 1 24.3691492422 62.4166974825 27.6417169992
398 23 1 25.461029637 67.7412151681 26.6541443792
399 23 2 24.7010006818 62.1754593769 28.0146250128
400 23 2 25.4923382397 61.8169073274 28.5791383503
401 23 2 26.4439556433 61.6185756226 28.9376615202
402 23 2 27.4714830083 61.6126552216 29.070335836
403 23 2 28.4836314608 61.8137993073 28.9778881306
404 23 2 29.3905138732 62.217787688 28.6815645077
405 23 2 30.1118378364 62.8019114567 28.2211938157
406 23 2 30.5842240979 63.5270428474 27.6515573551
407 23 2 30.7669834114 64.341201626 27.0373957089
408 23 2 30.6458252528 65.1842929502 26.447507812
409 23 2 30.2341603632 65.9935848532 25.9484801118
410 23 2 29.5718783957 66.7094260953 25.5986173917
411 23 2 28.7217120806 67.2806832148 25.4426284459
412 23 2 27.7635193039 67.6694012062 25.5075509921
413 23 2 26.787004275 67.8542630178 25.8002872559
414 23 2 25.8835412277 67.8325325435 26.3069748517
415 24 1 40.9720278427 51.5453640654 66.5523329968
416 24 1 45.9713581326 52.9305372315 68.4512756009
417 24 2 40.555379659 51.6295689459 66.9082759938
418 24 2 39.9151190002 51.6679863403 67.7219346469
419 24 2 39.5099543223 51.5631115909 68.6697177877
420 24 2 39.3820933233 51.3409815651 69.6735902037
421 24 2 39.5484682119 51.0383206351 70.6504042951
422 24 2 39.9991923821 50.6991933503 71.5194787558
423 24 2 40.6984615507 50.3709880704 72.2099524593
424 24 2 41.5878172225 50.1000976438 72.6672432606
425 24 2 42.5914750255 49.9276908232 72.858023013
426 24 2 43.6232322538 49.8859598437 72.7732553398
427 24 2 44.594325014 49.9951861868 72.4290192753
428 24 2 45.4215188171 50.2618919777 71.8650437045
429 24 2 46.0346951791 50.6782455105 71.1410861809
430 24 2 46.383242734 51.2227750879 70.3314861855
431 24 2 46.440670324 51.8623261086 69.5183892817
432 24 2 46.2070215982 52.5550830208 68.7842597667
433 25 1 58.294206782 44.2348916442 17.7289880539
434 25 1 57.5938317333 43.5122031175 23.160855794
435 25 2 58.1632806177 44.7400480988 17.5417532176
436 25 2 57.7186619534 45.6467265596 17.3100240155
437 25 2 57.0559758738 46.4417075251 17.2620403136
438 25 2 56.2419197542 47.0637347557 17.4164578312
439 25 2 55.3569879448 47.467316283 17.7734839571
440 25 2 54.488134925 47.6268708801 18.3148588474
441 25 2 53.720849636 47.539059723 19.0055197607
442 25 2 53.1313633915 47.2230907148 19.7967969337
443 25 2 52.7797015975 46.7189677369 20.6308497
444 25 2 52.7042125973 46.0838444024 21.4459385123
445 25 2 52.9180723217 45.3868146564 22.1820523368
446 25 2 53.4080833391 44.7026150482 22.7863784989
447 25 2 54.1358777653 44.1048126942 23.2181164171
448 25 2 55.041414394 43.6590998322 23.4521964672
449 25 2 56.0484512924 43.4173061492 23.4815650111
450 25 2 57.0714950491 43.4126746438 23.3178273178
451 26 1 20.3128590225 72.0132439337 62.7584604778
452 26 1 17.1778738994 74.632541694 59.0397055003
453 26 2 20.8586024579 72.0923292342 62.7010914444
454 26 2 21.8363911012 72.1809193203 62.3701364975
455 26 2 22.6818155308 72.2013079388 61.771561649
456 26 2 23.3185608911 72.1701496311 60.9548398377
457 26 2 23.689332866 72.108797303 59.9893275148
458 26 2 23.7610799023 72.0413559648 58.9579429891
459 26 2 23.5280057712 71.9924856237 57.9496086446
460 26 2 23.0120978781 71.9851535903 57.0511459028
461 26 2 22.2611231701 72.0385410691 56.3393616825
462 26 2 21.3442743063 72.1662948438 55.8740476539
463 26 2 20.3458629316 72.3752834088 55.6925303883
464 26 2 19.3576348957 72.6649709243 55.8062691403
465 26 2 18.4704078645 73.0274660571 56.1998113679
466 26 2 17.7657935319 73.4482412543 56.8322011898
467 26 2 17.3087589326 73.9074568907 57.6407124053
468 26 2 17.1417048704 74.3817695979 58.5465658191
469 27 1 58.8781364109 19.1132917021 54.2510044739
470 27 1 54.1358879431 21.8114422201 53.3855252348
471 27 2 59.311947487 19.4364586888 54.3724649078
472 27 2 60.0542049855 20.1584373858 54.4078284253
473 27 2 60.6413805691 20.9867396291 54.2014543989
474 27 2 61.0118365616 21.8592795951 53.7832602136
475 27 2 61.1236886981 22.7099393097 53.202470096
476 27 2 60.9586237639 23.4745951253 52.5231284572
477 27 2 60.5235687953 24.09696242 51.818262416
478 27 2 59.8500596987 24.5337257901 51.1632255724
479 27 2 58.9913668367 24.7584871336 50.6288297282
480 27 2 58.0176395772 24.7641717666 50.2748905804
481 27 2 57.0095123662 24.5636732617 50.1447756806
482 27 2 56.0507551131 24.1886782337 50.2614515984
483 27 2 55.2206377877 23.6867781889 50.6253905799
484 27 2 54.5867051742 23.1171316868 51.214527504
485 27 2 54.1986203446 22.5450721953 51.9862710588
486 27 2 54.0836380026 22.0361531198 52.8813858262
487 28 1 44.2312868691 6.80826960237 14.6560052349
488 28 1 39.7024907576 4.17618489956 12.900976187
489 28 2 44.239397924 6.92292917785 15.1983787046
490 28 2 44.0409682122 7.22596786793 16.1690708355
491 28 2 43.5749086155 7.60640539266 17.0125788397
492 28 2 42.8756071394 8.01380705078 17.6594569933
493 28 2 41.9987111632 8.39528043235 18.0581818576
494 28 2 41.0160553305 8.70029642052 18.1798485029
495 28 2 40.0091140129 8.88529478552 18.0208051157
496 28 2 39.0615751391 8.91765458313 17.6029858517
497 28 2 38.2517122639 8.77866746661 16.9719115962
498 28 2 37.6452501426 8.46524290244 16.1925408569
499 28 2 37.2893740957 7.99018986424 15.3433489697
500 28 2 37.2084291926 7.38104932905 14.5091752814
501 28 2 37.4017012638 6.67758399085 13.7734902703
502 28 2 37.8434819955 5.92815399734 13.2107874348
503 28 2 38.4854121737 5.18530905168 12.8797934104
504 28 2 39.2608894974 4.50099864751 12.8181151939
505 29 1 65.1842463679 67.6794352063 7.30711061728
506 29 1 63.3213777151 63.8719986772 3.76435201397
507 29 2 65.1469918931 67.5387839343 7.84209745063
508 29 2 64.8547835407 67.2250278487 8.78529488949
509 29 2 64.3013229356 66.8547197781 9.57902236328
510 29 2 63.5414312294 66.4429126104 10.150362422
511 29 2 62.6487452165 66.0084417657 10.4466676341
512 29 2 61.7090055378 65.5722083972 10.4403592592
513 29 2 60.8122416497 65.1552743078 10.1314409767
514 29 2 60.0445658804 64.7769422224 9.54749855003
515 29 2 59.4803245211 64.4529963966 8.74118545852
516 29 2 59.1753213601 64.1942639238 7.7854236731
517 29 2 59.1617313168 64.0056278745 6.76675701379
518 29 2 59.4451677841 63.8855822176 5.77746291168
519 29 2 60.0041709819 63.8263690909 4.90714156782
520 29 2 60.7921639596 63.81468591 4.23454913432
521 29 2 61.7416979598 63.8328978626 3.82041930157
522 29 2 62.770600193 63.8606452751 3.70192758475
523 30 1 63.2001302348 50.8337550549 66.5304347251
524 30 1 62.4356601737 55.2863315701 69.7097646803
525 30 2 63.0457989942 50.8951435973 66.0014782968
526 30 2 62.5575140023 51.0890253808 65.1084846619
527 30 2 61.8540111189 51.3851648823 64.4078884159
528 30 2 61.004820369 51.7746582467 63.9599821753
529 30 2 60.092750837 52.2400926638 63.8020265377
530 30 2 59.2063428406 52.7571334995 63.9448538787
531 30 2 58.4317977169 53.2967423325 64.3718810088
532 30 2 57.8451208011 53.8278237288 65.0406206877
533 30 2 57.5051937435 54.3200595076 65.8865542222
534 30 2 57.4484076044 54.7466721622 66.8290121728
535 30 2 57.6853459058 55.0868655584 67.7785271572
536 30 2 58.1998199723 55.3277204462 68.6449885637
537 30 2 58.9503444854 55.4653720155 69.3458558921
538 30 2 59.873918759 55.5053621624 69.8136820997
539 30 2 60.8917690839 55.462134361 70.0022612193
540 30 2 61.9165287411 55.3577171788 69.8908399093
541 31 1 57.4348028 34.7785199816 47.3886503093
542 31 1 59.306764323 39.8434809579 46.2224936194
543 31 2 57.5047277508 34.619098751 47.9150313125
544 31 2 57.8571994401 34.3904796649 48.8621041888
545 31 2 58.4658153005 34.2837656739 49.6937584858
546 31 2 59.2716187996 34.3250086113 50.3437044467
547 31 2 60.197680279 34.5267744319 50.7622145437
548 31 2 61.1561088866 34.8869978588 50.9206560093
549 31 2 62.0560635932 35.3891706277 50.8141006368
550 31 2 62.8120331094 36.0038461713 50.4617739731
551 31 2 63.351630011 36.6913235948 49.9053029612
552 31 2 63.6221886594 37.4052663069 49.2049217559
553 31 2 63.5955655335 38.0969254759 48.4339815414
554 31 2 63.270704437 38.7195833556 47.6722647673
555 31 2 62.673732767 39.2328114826 46.9987131908
556 31 2 61.8555800726 39.6061556233 46.4842325474
557 31 2 60.8873359618 39.8219115954 46.185229682
558 31 2 59.8537704741 39.876738957 46.138471216
559 32 1 60.7640598303 31.5264609231 49.3484149636
560 32 1 59.6545736642 36.6468665257 51.1001221233
561 32 2 61.0635823187 31.2192323868 49.6995253359
562 32 2 61.7646893568 30.8331078679 50.3574058631
563 32 2 62.5865984312 30.7260655248 50.9790628597
564 32 2 63.4471695296 30.9131940829 51.524819489
565 32 2 64.2607386997 31.3827693763 51.9619170302
566 32 2 64.9459260893 32.097322974 52.2675007477
567 32 2 65.4330535022 32.9970573273 52.4307030397
568 32 2 65.6704953799 34.0052961569 52.4536339906
569 32 2 65.6293843329 35.03547329 52.3511890427
570 32 2 65.3062423266 35.9990229365 52.1496913163
571 32 2 64.7232976941 36.8134522233 51.8844923279
572 32 2 63.9264590839 37.4098601997 51.5967497935
573 32 2 62.9811310086 37.7392179747 51.3296762133
574 32 2 61.9662523988 37.7768375695 51.1246001674
575 32 2 60.9671015303 37.5246221603 51.0171993265
576 32 2 60.0675231375 37.0108926097 51.0342485274
577 33 1 40.6555960269 62.0716847891 16.2719656246
578 33 1 37.6298369186 58.3043448464 18.9496367463
579 33 2 40.590564939 62.5927903211 16.4497339293
580 33 2 40.2401944735 63.5180877953 16.757167064
581 33 2 39.620126437 64.3041240523 17.0238366049
582 33 2 38.7853121015 64.8767309367 17.2444185451
583 33 2 37.8102762901 65.18119381 17.4177896393
584 33 2 36.7823246385 65.1872386437 17.5471297845
585 33 2 35.79358592 64.891791416 17.6396321812
586 33 2 34.9326147539 64.3192583004 17.7058476921
587 33 2 34.2763200883 63.519301109 17.7587231593
588 33 2 33.8829551557 62.5623107502 17.8124213342
589 33 2 33.7868078459 61.5329912858 17.8810299807
590 33 2 33.9950754569 60.5226393827 17.977277813
591 33 2 34.4872086802 59.6208228649 18.1113743073
592 33 2 35.2167846157 58.9072168462 18.2900791356
593 33 2 36.1157380944 58.4443415565 18.5160860393
594 33 2 37.1005656371 58.27186379 18.7877773022
595 34 1 19.4785516694 44.1129659004 37.5381388383