LAMMPS input file for bananas

4320 atoms

2 atom types

0 126.992084157 xlo xhi
0 126.992084157 ylo yhi
0 126.992084157 zlo zhi

Masses

 1 1
 2 1

Atoms

1 1 1 66.1531509044 99.3567072342 108.857445308
2 1 1 65.6654980478 97.7536351212 114.121507005
3 1 2 66.2076992797 99.9035111404 108.783882063
4 1 2 66.1204032728 100.935899591 108.785754061
5 1 2 65.8043492183 101.903170213 108.980554959
6 1 2 65.2995075934 102.72199873 109.365398831
7 1 2 64.663056358 103.322590966 109.920077838
8 1 2 63.9641693361 103.655044402 110.608904126
9 1 2 63.277711207 103.69389665 111.383962673
10 1 2 62.6774137894 103.440446288 112.189478617
11 1 2 62.2291555835 102.922634496 112.966900986
12 1 2 61.9849571218 102.192498289 113.660239462
13 1 2 61.9782394365 101.321427488 114.221167749
14 1 2 62.2207778215 100.393657724 114.613428388
15 1 2 62.7016285466 99.498592588 114.816137521
16 1 2 63.3881263483 98.7226547296 114.825688408
17 1 2 64.2288617819 98.1414086672 114.656080163
18 1 2 65.1583670548 97.8126732819 114.337641777
19 2 1 48.6705862119 113.440875322 106.677948645
20 2 1 46.3025655625 109.941555762 110.236773153
21 2 2 48.5930995559 113.977908046 106.791848863
22 2 2 48.2222039366 114.918197857 107.01931649
23 2 2 47.58912017 115.701117092 107.263636829
24 2 2 46.7527100847 116.255429304 107.521718506
25 2 2 45.7903681597 116.530734967 107.789215837
26 2 2 44.7909672248 116.502065257 108.060924928
27 2 2 43.8467579392 116.172157891 108.331257993
28 2 2 43.044960391 115.571207594 108.594752667
29 2 2 42.459814219 114.754113929 108.846569886
30 2 2 42.1458118681 113.795477351 109.082934956
31 2 2 42.1327317487 112.782799572 109.301481605
32 2 2 42.422924014 111.808508015 109.50146766
33 2 2 42.9910963499 110.961531302 109.683842699
34 2 2 43.786619302 110.319193646 109.851161497
35 2 2 44.7381410146 109.940166959 110.007351164
36 2 2 45.7600907622 109.85912306 110.157353201
37 3 1 18.8982718009 7.40884788944 114.824344885
38 3 1 18.2596149069 8.36089951875 109.420299537
39 3 2 18.4259850169 7.37055603247 115.11219991
40 3 2 17.492513594 7.50171394797 115.54217516
41 3 2 16.5584720002 7.87708709627 115.787351243
42 3 2 15.6976504595 8.45308791006 115.813029032
43 3 2 14.9771653843 9.16784214654 115.604516086
44 3 2 14.4513418929 9.94682855929 115.168465818
45 3 2 14.1567622205 10.7096713107 114.532271065
46 3 2 14.1089313465 11.3774660147 113.741567295
47 3 2 14.3008637566 11.8799716609 112.856073062
48 3 2 14.7037201542 12.1620128944 111.944146816
49 3 2 15.2694360848 12.1885091025 111.076556217
50 3 2 15.9351028828 11.9476719186 110.320027846
51 3 2 16.6287016283 11.4520797001 109.731165261
52 3 2 17.2756674788 10.737531045 109.35128973
53 3 2 17.8056860559 9.85978184532 109.202673911
54 3 2 18.1591024121 8.88946328636 109.286511757
55 4 1 81.6412899203 29.7174914182 68.35010214
56 4 1 76.4679203694 28.0025181351 69.2518255948
57 4 2 81.6927820995 30.2594653987 68.2452482032
58 4 2 81.6190352561 31.2306953905 67.8920857515
59 4 2 81.3200291812 32.0764487378 67.3736779449
60 4 2 80.8100278782 32.7271776558 66.749257768
61 4 2 80.1225270017 33.1311103151 66.0877209491
62 4 2 79.307200818 33.2589697059 65.4613462996
63 4 2 78.4253745284 33.1066421585 64.9392076931
64 4 2 77.5444346412 32.6955522943 64.5808781662
65 4 2 76.7316868715 32.0707102278 64.430999996
66 4 2 76.0482214051 31.2966090155 64.5152156755
67 4 2 75.5433446914 30.4513462865 64.837830669
68 4 2 75.2500852924 29.6195058514 65.3814209804
69 4 2 75.1821834173 28.8844481149 66.1084213041
70 4 2 75.3328385396 28.3207119974 66.964549002
71 4 2 75.6753292463 27.9872209116 67.8837518211
72 4 2 76.1654488239 27.9219120508 68.7942283796
73 5 1 125.640442657 116.214939658 48.0684372984
74 5 1 121.026782826 118.187657616 50.3793933517
75 5 2 125.623970118 116.169272777 47.5161468137
76 5 2 125.39089692 115.971503653 46.5261901133
77 5 2 124.906142615 115.657226606 45.6661359214
78 5 2 124.204057281 115.270841491 45.0094527878
79 5 2 123.338800139 114.863320618 44.6110725338
80 5 2 122.379403082 114.487562765 44.5023833637
81 5 2 121.403478608 114.193571597 44.6883689137
82 5 2 120.490145642 114.023897963 45.1471540069
83 5 2 119.712818061 114.009761503 45.8319985171
84 5 2 119.132513215 114.168205056 46.6755576067
85 5 2 118.792290358 114.500541256 47.596020028
86 5 2 118.713325914 114.992232888 48.5045650004
87 5 2 118.892983298 115.614217913 49.313457987
88 5 2 119.305053239 116.3255584 49.9440474627
89 5 2 119.902142682 117.077171904 50.3339337913
90 5 2 120.619994538 117.816305203 50.4426567849
91 6 1 60.9357578134 40.4425433217 62.7348161588
92 6 1 56.6123990808 43.3932746686 64.5010961053
93 6 2 61.1311754726 40.5894160654 62.2371999174
94 6 2 61.270760634 40.8458720607 61.2431192787
95 6 2 61.1053677632 41.0745325874 60.2462192973
96 6 2 60.6483233999 41.2736793641 59.337978678
97 6 2 59.939537338 41.4442842091 58.6017950619
98 6 2 59.0418649546 41.5899204613 58.1053835539
99 6 2 58.0353781098 41.7164372802 57.8946046723
100 6 2 57.0100668112 41.8314265105 57.9892842849
101 6 2 56.057636865 41.9435307059 58.3814065339
102 6 2 55.263151137 42.061655383 59.0358444605
103 6 2 54.6972762995 42.194157308 59.8935617329
104 6 2 54.4098417534 42.3480827991 60.8769936503
105 6 2 54.4252978111 42.5285254738 61.8971169578
106 6 2 54.7404871159 42.7381619793 62.8615640787
107 6 2 55.3249324269 42.9770080228 63.6830421715
108 6 2 56.123614538 43.2424169406 64.2872896399
109 7 1 11.4363934836 117.292652213 32.6685508791
110 7 1 8.60065125682 114.294230029 36.3408827665
111 7 2 11.527304703 117.81900087 32.8171235208
112 7 2 11.4656604099 118.802741854 33.1363470608
113 7 2 11.1117907577 119.706178754 33.4997037013
114 7 2 10.5012857877 120.445179115 33.8929112278
115 7 2 9.69312716457 120.950598434 34.298966597
116 7 2 8.764312155 121.174582495 34.6996957195
117 7 2 7.80283553294 121.094929154 35.0774099787
118 7 2 6.899669091 120.717112004 35.4165185015
119 7 2 6.14046980471 120.073781472 35.7049492244
120 7 2 5.59777242816 119.221788822 35.9352492298
121 7 2 5.32437814503 118.23700431 36.1052640598
122 7 2 5.3485418818 117.207401817 36.2183340892
123 7 2 5.67139694676 116.225040262 36.2829900588
124 7 2 6.26685173197 115.377672681 36.312175522
125 7 2 7.08396789355 114.740747766 36.3220670736
126 7 2 8.05160324565 114.370532926 36.3305998973
127 8 1 43.9676761746 43.3834075112 63.4087562548
128 8 1 40.5202706264 39.0855300177 63.8107949324
129 8 2 43.7329562449 43.8793599371 63.4882504928
130 8 2 43.1386904634 44.7280097103 63.4786716349
131 8 2 42.3799531864 45.4040592541 63.276867844
132 8 2 41.5134189896 45.8420791448 62.9153335133
133 8 2 40.6055878498 45.9983357256 62.441122048
134 8 2 39.7267238499 45.8547773123 61.911557073
135 8 2 38.9444507954 45.4206795558 61.3890075374
136 8 2 38.3175884851 44.7317999921 60.9352029519
137 8 2 37.8907914441 43.8471188374 60.6056069089
138 8 2 37.6904787829 42.8434631 60.4443617239
139 8 2 37.7224261659 41.8085040032 60.4802649816
140 8 2 37.9712393754 40.832765988 60.7241447134
141 8 2 38.4017574534 40.001375652 61.1678724507
142 8 2 38.9622575284 39.3863026875 61.7851041134
143 8 2 39.5891692177 39.0398000369 62.5336812024
144 8 2 40.2128688972 38.989641176 63.3594734339
145 9 1 50.4343854433 91.5430771156 74.3104768679
146 9 1 52.5390587565 93.1665551168 69.4676821701
147 9 2 50.7081777317 91.7250272394 74.7569222995
148 9 2 51.4075298698 91.9804706471 75.4774118994
149 9 2 52.2980097816 92.1208456597 75.9880883073
150 9 2 53.3032747711 92.151162764 76.237032448
151 9 2 54.3365197893 92.0864639311 76.1961814426
152 9 2 55.3083894822 91.9504515808 75.8638864656
153 9 2 56.1351226928 91.7733281694 75.2650630302
154 9 2 56.7461870664 91.5890433164 74.4489200063
155 9 2 57.0907078866 91.4321993879 73.4844743636
156 9 2 57.1421051693 91.3348975827 72.454260459
157 9 2 56.9005163574 91.3238119944 71.4468072507
158 9 2 56.3927837933 91.4177583389 70.5485691203
159 9 2 55.670008111 91.6259789521 69.836045787
160 9 2 54.8028905502 91.9473003756 69.3688095624
161 9 2 53.8752887266 92.3702403146 69.184075494
162 9 2 52.9765732352 92.8740542183 69.2933093127
163 10 1 40.5707577529 15.1351439323 56.7162921985
164 10 1 41.1126906227 10.8196863943 60.1223347796
165 10 2 40.5929891356 15.6313527155 56.9625932281
166 10 2 40.4739349615 16.464589375 57.5667395547
167 10 2 40.1677804761 17.1066700941 58.3200335162
168 10 2 39.7159759301 17.4962075671 59.1671363556
169 10 2 39.1732471877 17.5948331298 60.0441588877
170 10 2 38.6026076109 17.3906939614 60.8844848271
171 10 2 38.0696145593 16.8995334372 61.6248426848
172 10 2 37.6363940126 16.1632561616 62.2110727954
173 10 2 37.3559779533 15.246108476 62.6030638254
174 10 2 37.2674706432 14.2288225761 62.7784088147
175 10 2 37.3924843746 13.2012579884 62.7344475104
176 10 2 37.7331695676 12.2542111142 62.4885088424
177 10 2 38.2720187649 11.4711393803 62.0763314372
178 10 2 38.97346239 10.9205543179 61.5488061382
179 10 2 39.7871108187 10.6497769194 60.9673374408
180 10 2 40.652347259 10.6806244565 60.398246637
181 11 1 60.4801920527 22.1280680126 108.862780461
182 11 1 56.7237934454 23.0899622188 112.7975257
183 11 2 60.459846626 22.474801395 108.430642042
184 11 2 60.1931517323 23.0675821511 107.623836724
185 11 2 59.6481690204 23.5553774405 106.890011397
186 11 2 58.8705238993 23.9104282951 106.304642311
187 11 2 57.9270483347 24.1170750474 105.929674326
188 11 2 56.8996892941 24.1731846671 105.807874804
189 11 2 55.8780394995 24.0903451812 105.958935481
190 11 2 54.9511712905 23.8928094562 106.377677611
191 11 2 54.1995179185 23.6152846143 107.034524003
192 11 2 53.6875422708 23.299768572 107.878194895
193 11 2 53.4578612506 22.991722042 108.840381974
194 11 2 53.5273613606 22.7359249111 109.841974493
195 11 2 53.8856595428 22.5723946729 110.800270003
196 11 2 54.496049567 22.5327389404 111.636512463
197 11 2 55.2988477053 22.6372744964 112.283070642
198 11 2 56.2168327446 22.8931754733 112.689602521
199 12 1 60.2702800149 64.91327132 26.7784898497
200 12 1 62.7642050076 63.9173415352 31.6061655903
201 12 2 60.5220776548 65.2898028335 26.4587969409
202 12 2 60.9889589392 66.123165669 26.057575977
203 12 2 61.4292425501 67.0542986524 25.9453631425
204 12 2 61.8213278699 67.9942894198 26.1354590929
205 12 2 62.1480074266 68.8534182437 26.6136098457
206 12 2 62.3980353085 69.5493357467 27.3393059932
207 12 2 62.5671521993 70.014568827 28.2494750266
208 12 2 62.6584736032 70.2026706515 29.2642302266
209 12 2 62.6822058753 70.0924541602 30.2941521244
210 12 2 62.6547159391 69.6899232105 31.2484388471
211 12 2 62.5970394857 69.027725341 32.0431824659
212 12 2 62.5329636266 68.1621760365 32.6090169796
213 12 2 62.4868587618 67.1681257212 32.89744084
214 12 2 62.4814572834 66.1321373431 32.8852377385
215 12 2 62.5357815787 65.1445963926 32.5765927106
216 12 2 62.66341019 64.2914725065 32.0027106812
217 13 1 40.6674839097 95.1770845056 73.4352174202
218 13 1 44.2871706283 94.5747479571 77.5647512683
219 13 2 40.8602247343 95.451723935 72.9938493805
220 13 2 41.286605619 96.123238317 72.3299835906
221 13 2 41.779767005 96.9404888925 71.9270650437
222 13 2 42.3128273537 97.822534185 71.8207975617
223 13 2 42.8552684426 98.6825268532 72.0198460152
224 13 2 43.3757170199 99.4356295934 72.5050465432
225 13 2 43.8448043924 100.006747833 73.2311532877
226 13 2 44.2378433034 100.337374401 74.1309624332
227 13 2 44.5370781102 100.390922298 75.1214376547
228 13 2 44.7333031637 100.156059506 76.1112786563
229 13 2 44.8267018781 99.6477418703 77.00924295
230 13 2 44.826830014 98.9058499144 77.7324623639
231 13 2 44.7517446956 97.9915538365 78.2139962548
232 13 2 44.6263585527 96.9817380099 78.4089329692
233 13 2 44.4801690005 95.9619931775 78.29848342
234 13 2 44.3445696297 95.0188150849 77.8916936619
235 14 1 104.802807427 56.0293496018 45.2253964019
236 14 1 100.560233304 57.4979059302 48.4443866448
237 14 2 105.283643666 55.9563348202 45.4915672877
238 14 2 106.133451924 56.031479133 46.0794697185
239 14 2 106.846984173 56.3677592293 46.7512118106
240 14 2 107.353398123 56.926248633 47.4619047876
241 14 2 107.600729767 57.6477670836 48.163109604
242 14 2 107.560629756 58.4582746586 48.8072520348
243 14 2 107.230947366 59.2756203147 49.3519589389
244 14 2 106.635926535 60.0170297358 49.7639204578
245 14 2 105.823996092 60.6066499907 50.02192612
246 14 2 104.863355595 60.982463325 50.1187981187
247 14 2 103.835759127 61.1019399135 50.0620455502
248 14 2 102.829063628 60.9459143405 49.8731799792
249 14 2 101.929220971 60.5203324757 49.5857547176
250 14 2 101.212443679 59.8557095246 49.2423065296
251 14 2 100.738258355 59.0043486487 48.8904785194
252 14 2 100.544079993 58.0355736721 48.5786775898
253 15 1 67.7515371213 35.4537307292 24.3984977276
254 15 1 71.1358832453 38.1018928497 20.9269808031
255 15 2 67.5160759516 34.9963482409 24.1917590396
256 15 2 67.0202825941 34.2836274789 23.6263670754
257 15 2 66.5041222423 33.8058639047 22.8655974194
258 15 2 66.0289921527 33.5991947048 21.9683854874
259 15 2 65.6525497832 33.6750475385 21.0061030438
260 15 2 65.4234574697 34.0190989365 20.0560528564
261 15 2 65.3769469842 34.5925798473 19.1944227554
262 15 2 65.5316082532 35.3358093326 18.4893413167
263 15 2 65.8876949354 36.1736343251 17.9946681237
264 15 2 66.4271013017 37.0222796299 17.7450846108
265 15 2 67.1150125233 37.7969838096 17.752932943
266 15 2 67.9030779511 38.4197249626 18.0070910609
267 15 2 68.7338181478 38.8263322113 18.4739864262
268 15 2 69.5458639848 38.9723347054 19.1006560693
269 15 2 70.2795502745 38.8370150218 19.819574022
270 15 2 70.8823540926 38.4252975019 20.5548061294
271 16 1 62.153105082 40.3087982275 46.0619927243
272 16 1 57.69240378 42.0604159167 43.313907859
273 16 2 62.0488620824 40.0865419802 46.5591015108
274 16 2 61.7302060621 39.8685405128 47.5205502677
275 16 2 61.2629223184 39.9156106989 48.4440654606
276 16 2 60.6733129445 40.2138467174 49.2421043536
277 16 2 59.9988296882 40.7264496528 49.83856104
278 16 2 59.2846603247 41.3970816182 50.1757032926
279 16 2 58.5796099119 42.1550008027 50.2194347018
280 16 2 57.9316523395 42.9215093992 49.962402472
281 16 2 57.3835576376 43.6171266981 49.4246676095
282 16 2 56.9689936025 44.1688335424 48.6518764152
283 16 2 56.709457067 44.5167278284 47.7110999467
284 16 2 56.6123145219 44.6194844223 46.6847206701
285 16 2 56.6701306797 44.4581218356 45.6629235186
286 16 2 56.8613461812 44.0377323374 44.7354757772
287 16 2 57.1522426737 43.3870178074 43.9835450342
288 16 2 57.5000161485 42.5556736363 43.4723009726
289 17 1 109.986312363 90.8254244999 36.190821097
290 17 1 105.165700317 90.6637996675 38.8840659753
291 17 2 110.01352487 91.1998827637 35.7828724775
292 17 2 109.861966745 91.8008677904 34.9526332688
293 17 2 109.45208167 92.2380355189 34.1074536349
294 17 2 108.811460045 92.4862557381 33.331927576
295 17 2 107.988723292 92.5376202977 32.7043003551
296 17 2 107.049092139 92.4021639144 32.2893366513
297 17 2 106.068441926 92.1069495346 32.1324174325
298 17 2 105.126386772 91.6936016191 32.2554036017
299 17 2 104.299022957 91.2145121848 32.6546434336
300 17 2 103.651992955 90.7280654121 33.3013054203
301 17 2 103.234502293 90.2933160834 34.1440061853
302 17 2 103.074834601 89.9646068971 35.1134939419
303 17 2 103.177773635 89.786615276 36.1289606077
304 17 2 103.524167249 89.7902811398 37.1054072457
305 17 2 104.072673063 89.989986814 37.9613914901
306 17 2 104.763526711 90.3822461191 38.6264508003
307 18 1 41.881530939 124.772732419 111.820597325
308 18 1 45.1459511647 120.699135663 113.628181658
309 18 2 41.4807365539 124.613686289 111.472100873
310 18 2 40.9087565931 124.209857602 110.708418133
311 18 2 40.6075662557 123.686101464 109.866744859
312 18 2 40.5993339345 123.073305132 109.031362973
313 18 2 40.8795256821 122.410471639 108.285980953
314 18 2 41.4173184681 121.741164769 107.706104031
315 18 2 42.1584096161 121.10953834 107.352152091
316 18 2 43.0299663472 120.556311698 107.263952558
317 18 2 43.9472642933 120.115058255 107.457110237
318 18 2 44.821409897 119.80914537 107.921584974
319 18 2 45.5674428214 119.649604468 108.62260679
320 18 2 46.112079858 119.634125561 109.503845074
321 18 2 46.400394495 119.747267793 110.492542964
322 18 2 46.4008233226 119.961866838 111.506148941
323 18 2 46.1080429527 120.241510851 112.459841183
324 18 2 45.543455232 120.543859312 113.274258843
325 19 1 45.9964163636 7.57656368519 75.2674022862
326 19 1 45.1210283951 4.53144925394 70.7420332331
327 19 2 46.3294511899 8.01369034998 75.1939879041
328 19 2 47.0940165267 8.67167632409 74.9574623986
329 19 2 47.9769743587 9.07609644368 74.5965194045
330 19 2 48.8925245492 9.19615938964 74.1266228746
331 19 2 49.7518962555 9.02699223922 73.5731675856
332 19 2 50.4714391532 8.5900846199 72.9691644717
333 19 2 50.9802479404 7.93132998733 72.352231766
334 19 2 51.2266251661 7.11684255943 71.7611661997
335 19 2 51.1827933144 6.2269311822 71.2324067831
336 19 2 50.8474266514 5.34877939302 70.7967134877
337 19 2 50.2457720621 4.56849887426 70.4763635565
338 19 2 49.4273478642 3.96328060357 70.2831209934
339 19 2 48.4614303456 3.5943591026 70.2171643053
340 19 2 47.4307394166 3.50143107399 70.267070232
341 19 2 46.4238989104 3.69903715305 70.4108549453
342 19 2 45.5273587581 4.17523656771 70.6179778167
343 20 1 119.962045509 35.4540528688 61.8745107069
344 20 1 114.458359982 35.5730302314 62.3363343459
345 20 2 120.152123724 35.2349779394 61.4020088176
346 20 2 120.361099191 34.6494593693 60.5731859961
347 20 2 120.353080791 33.8883140068 59.8703037487
348 20 2 120.1160475 33.0275198004 59.3446626503
349 20 2 119.658852391 32.1521374242 59.0314082186
350 20 2 119.010415697 31.3485572251 58.9463274943
351 20 2 118.217088813 30.6966249734 59.0844100947
352 20 2 117.338429483 30.2623641343 59.4203048964
353 20 2 116.44177328 30.0919580056 59.9106307225
354 20 2 115.596096141 30.2075402334 60.4979304212
355 20 2 114.865727398 30.6051773895 61.115907931
356 20 2 114.304486332 31.2552274929 61.6954709904
357 20 2 113.950776687 32.1050417971 62.1710287121
358 20 2 113.824086273 33.0837635826 62.4864700173
359 20 2 113.923210705 34.1087865573 62.6002780108
360 20 2 114.226363177 35.0932841999 62.4893141347
361 21 1 45.6694784399 102.985431399 96.2036475266
362 21 1 40.678235357 101.990993735 94.055025345
363 21 2 45.6995003027 103.435321193 96.5262609937
364 21 2 45.6512780831 104.381168335 96.9463774219
365 21 2 45.4575384113 105.386732177 97.1037188061
366 21 2 45.1190789927 106.359699633 96.9931314543
367 21 2 44.6498883513 107.210728692 96.6338826628
368 21 2 44.0758708122 107.8615917 96.0679045536
369 21 2 43.4324853923 108.252305606 95.3559720733
370 21 2 42.7615138053 108.346599252 94.5721635195
371 21 2 42.1072521705 108.135219395 93.7971085017
372 21 2 41.5124735395 107.636774117 93.1106387679
373 21 2 41.0145292472 106.896036742 92.5845117544
374 21 2 40.6419444374 105.979864874 92.2758700869
375 21 2 40.4118180718 104.971106501 92.2220331835
376 21 2 40.3282644062 103.961048624 92.4370956885
377 21 2 40.3820379861 103.04109669 92.9106427844
378 21 2 40.5513763458 102.294443229 93.6086994737
379 22 1 27.1518153977 81.7751526471 117.286036049
380 22 1 26.345465663 84.4791849357 122.035351847
381 22 2 26.7495196729 81.4192468579 117.148664993
382 22 2 26.0283520303 80.6762740548 117.111805038
383 22 2 25.3914936476 79.9000724838 117.367485566
384 22 2 24.8812777227 79.1709149986 117.898012741
385 22 2 24.5284943319 78.5647865105 118.660641186
386 22 2 24.3495839967 78.1464581663 119.591470118
387 22 2 24.3451391744 77.963583632 120.611267725
388 22 2 24.4998502572 78.0423555876 121.63269294
389 22 2 24.7839010018 78.3851183354 122.568256345
390 22 2 25.1556862004 78.9701541222 123.338294595
391 22 2 25.5656038842 79.7536626551 123.878231519
392 22 2 25.9605764106 80.6737533806 124.144464071
393 22 2 26.2888883477 81.6560866436 124.118336623
394 22 2 26.5049001984 82.620649548 123.807841381
395 22 2 26.5732083184 83.4890489183 123.246889917
396 22 2 26.4718718634 84.1916566284 122.492222215
397 23 1 67.5630397598 22.614271517 115.770964408
398 23 1 70.7106590756 19.0860211802 118.627874148
399 23 2 67.6968707936 23.1488231413 115.83200049
400 23 2 67.9379399107 24.0961458141 116.175388675
401 23 2 68.1641418653 24.899847945 116.788858782
402 23 2 68.3740442766 25.4858443762 117.617109451
403 23 2 68.5677004237 25.7998932427 118.585262651
404 23 2 68.7466443892 25.8125399728 119.605688605
405 23 2 68.9137512316 25.5218019944 120.585993018
406 23 2 69.0729749317 24.9533494403 121.437438564
407 23 2 69.2289879976 24.158165385 122.08303306
408 23 2 69.3867555781 23.207898873 122.464547094
409 23 2 69.5510829028 22.1883343004 122.547821483
410 23 2 69.726177298 21.1915723964 122.325880791
411 23 2 69.9152647003 20.3076354875 121.819569122
412 23 2 70.1202956212 19.616262204 121.075650232
413 23 2 70.3417673631 19.179639516 120.162545141
414 23 2 70.5786786915 19.0367345579 119.16409574
415 24 1 95.4450354137 75.6996346676 17.9510961941
416 24 1 92.3367433682 75.9589209601 22.510622731
417 24 2 95.8778056445 76.0460915579 17.9434060362
418 24 2 96.5247691228 76.8541670961 17.9870201794
419 24 2 96.915125759 77.8049550917 18.1176872955
420 24 2 97.0191378793 78.8111408992 18.3417890819
421 24 2 96.8331673472 79.7803605109 18.6571909156
422 24 2 96.3800071699 80.6236192888 19.0534364182
423 24 2 95.7068039765 81.2634035884 19.512700527
424 24 2 94.8807607291 81.6407459199 20.0114142018
425 24 2 93.983011352 81.7205996775 20.5224126799
426 24 2 93.1012255919 81.495033544 21.0174114715
427 24 2 92.321618154 80.9839544086 21.4695844157
428 24 2 91.721090463 80.2332929078 21.8560088129
429 24 2 91.360221303 79.3108169703 22.1597547678
430 24 2 91.2777452236 78.2999549513 22.3714283045
431 24 2 91.4870219894 77.2921913613 22.4900276014
432 24 2 91.9748188726 76.3787282973 22.5230343056
433 25 1 75.4158185112 17.0876704443 11.9169154121
434 25 1 72.1262410754 13.4094975269 9.43342686887
435 25 2 75.1722473716 17.5683852264 12.0471766351
436 25 2 74.646845795 18.4611577672 12.0661604434
437 25 2 74.0579191998 19.270133177 11.7975077625
438 25 2 73.4417073303 19.915730643 11.2712598599
439 25 2 72.8369369104 20.3332608151 10.5409371191
440 25 2 72.2812918067 20.4788220674 9.67866079927
441 25 2 71.8079782442 20.3333020143 8.76857937606
442 25 2 71.4426981482 19.904119553 7.89919863229
443 25 2 71.2013064823 19.2245486513 7.15531459268
444 25 2 71.0883661107 18.350685514 6.6102845928
445 25 2 71.0967319055 17.3563355637 6.31934095398
446 25 2 71.208202006 16.3262862741 6.31455670485
447 25 2 71.3951768694 15.3485790185 6.60192221052
448 25 2 71.6231748959 14.5064843333 7.16079916679
449 25 2 71.8539753338 13.8709120318 7.94580172641
450 25 2 72.0491019992 13.4939479639 8.89093329779
451 26 1 115.417809831 108.8701877 5.95275968253
452 26 1 116.45460893 106.320623018 1.16289970297
453 26 2 115.847837707 108.89547963 6.30178394043
454 26 2 116.665468569 108.711886366 6.91106490801
455 26 2 117.447971813 108.246523442 7.40561119809
456 26 2 118.138658253 107.544894172 7.72828536963
457 26 2 118.689207558 106.674036916 7.83761566579
458 26 2 119.064072523 105.716414712 7.71157605374
459 26 2 119.243719102 104.762398992 7.34959383874
460 26 2 119.226406882 103.902032467 6.77260186364
461 26 2 119.028347719 103.216821971 6.02113053629
462 26 2 118.682228068 102.772309338 5.15161359113
463 26 2 118.234229704 102.612097434 4.23124430518
464 26 2 117.739820372 102.753875872 3.33185101038
465 26 2 117.258698056 103.187808654 2.52335013315
466 26 2 116.849349661 103.877430694 1.867373499
467 26 2 116.563720091 104.762971513 1.41165075632
468 26 2 116.442477612 105.76680316 1.18565894653
469 27 1 21.5853558476 110.325342018 98.2948541859
470 27 1 20.4474737096 105.035457212 97.1811513366
471 27 2 21.2326126411 110.571515035 98.6446436427
472 27 2 20.4103535412 110.944325764 99.1529271702
473 27 2 19.4397566643 111.162267005 99.4425706219
474 27 2 18.4056643236 111.19132459 99.4996556347
475 27 2 17.3987062738 111.014700591 99.3314609259
476 27 2 16.5070390519 110.634344405 98.9657988573
477 27 2 15.8083107438 110.070775075 98.4484804125
478 27 2 15.3625835693 109.361211033 97.8391396488
479 27 2 15.2068593708 108.556177736 97.2057982117
480 27 2 15.3517069948 107.714902411 96.618665344
481 27 2 15.7802989695 106.899915647 96.1437385009
482 27 2 16.4499452839 106.171351904 95.8367878583
483 27 2 17.295984468 105.581468412 95.7382730104
484 27 2 18.2376773136 105.169882066 95.8696551859
485 27 2 19.1855660365 104.959958456 96.2314411143
486 27 2 20.0496281152 104.95668215 96.8031368386
487 28 1 20.5934382472 118.733123531 5.57993297601
488 28 1 21.4036025968 123.374617297 2.69581085559
489 28 2 20.7032380696 118.772725473 6.12192677046
490 28 2 21.1113991733 118.938867856 7.05961074351
491 28 2 21.7443221919 119.225927071 7.8280217472
492 28 2 22.5378474912 119.625379238 8.36113109562
493 28 2 23.4131769681 120.118456157 8.61435721985
494 28 2 24.2840562874 120.677855984 8.56862915877
495 28 2 25.064636734 121.270231719 8.23212482623
496 28 2 25.6773000936 121.859230696 7.63952561604
497 28 2 26.0597333455 122.408808032 6.84885528564
498 28 2 26.170608328 122.886512019 5.93619124566
499 28 2 25.9933486901 123.266442016 4.98873030731
500 28 2 25.5376407809 123.531609217 4.09684092609
501 28 2 24.8385507656 123.675485139 3.34582635856
502 28 2 23.9533284376 123.702596676 2.80814949859
503 28 2 22.9561890532 123.628113482 2.53682807817
504 28 2 21.9315488094 123.476465301 2.5606022429
505 29 1 51.2650214833 106.919682059 73.4201860214
506 29 1 47.6130873005 109.059659498 76.9700964912
507 29 2 51.6357188526 106.574739571 73.6459729308
508 29 2 52.358937213 106.10605463 74.2210726098
509 29 2 53.054548696 105.895057038 74.9593508039
510 29 2 53.6484252137 105.951645917 75.806438988
511 29 2 54.0757115481 106.2613306 76.6980508973
512 29 2 54.2867367314 106.786551412 77.5658420484
513 29 2 54.2515414216 107.470103136 78.3436391563
514 29 2 53.9626086164 108.240349118 78.9734716526
515 29 2 53.4355488083 109.01775075 79.4108555477
516 29 2 52.7076771294 109.72211721 79.6288480277
517 29 2 51.8346121774 110.279914632 79.6205032197
518 29 2 50.8852065284 110.630968531 79.3995052898
519 29 2 49.9352710094 110.733948538 78.9989211676
520 29 2 49.0606647432 110.570135558 78.4681865843
521 29 2 48.330380793 110.145127962 77.8686001376
522 29 2 47.8002576283 109.488331315 77.2677360888
523 30 1 59.9401466477 25.3164794343 43.5618404206
524 30 1 62.9268068925 20.7029426466 43.0022602642
525 30 2 59.9050158467 25.6288319613 43.1051311983
526 30 2 60.0734097883 26.1889359553 42.2499253707
527 30 2 60.5303433556 26.6622451167 41.4495253682
528 30 2 61.2327661545 26.9922741393 40.7631340316
529 30 2 62.115252104 27.1355973186 40.2395626168
530 30 2 63.0959628478 27.0658066887 39.9127817786
531 30 2 64.0841071023 26.7759190379 39.7988252372
532 30 2 64.9882160394 26.2790124097 39.8943283467
533 30 2 65.7244804253 25.6070340738 40.1768347739
534 30 2 66.2243896086 24.8078886185 40.606843333
535 30 2 66.4409760829 23.941071575 41.1314084131
536 30 2 66.3530964494 23.0722465587 41.6889658292
537 30 2 65.9673585814 22.2672602066 42.2149442331
538 30 2 65.3175193339 21.5861404321 42.647650619
539 30 2 64.4614076971 21.077625041 42.9338934763
540 30 2 63.4756538378 20.7747194108 43.0338310537
541 31 1 29.9570849861 51.8113608614 80.1808872725
542 31 1 31.876937993 56.3163753505 82.7376430188
543 31 2 29.4420862294 51.6635268152 80.3233757404
544 31 2 28.5633838304 51.4068715799 80.8086181492
545 31 2 27.8564056707 51.2106323211 81.5401385155
546 31 2 27.3769892959 51.1097805624 82.4530672495
547 31 2 27.1602306029 51.1305935114 83.4659998738
548 31 2 27.217284943 51.2882589629 84.4884168234
549 31 2 27.5343503413 51.585490972 85.4289340626
550 31 2 28.07392551 52.0122824749 86.2036324952
551 31 2 28.7782279905 52.5468174064 86.7437069662
552 31 2 29.5744608697 53.1574591756 87.0017376676
553 31 2 30.3814480248 53.8056342569 86.956012327
554 31 2 31.1170331091 54.4493480635 86.6125052235
555 31 2 31.705567884 55.047012642 86.0043326481
556 31 2 32.0848073536 55.5612373029 85.1887344419
557 31 2 32.2115832297 55.9622366822 84.2418567379
558 31 2 32.0657386056 56.2305455979 83.2518114447
559 32 1 103.784013853 64.006407388 56.0921746425
560 32 1 100.879804994 60.7827457311 59.5114680616
561 32 2 103.78452393 64.5451399693 56.2231270524
562 32 2 103.552369792 65.5220908427 56.4783161162
563 32 2 103.037584209 66.3814583239 56.7427652539
564 32 2 102.287987808 67.0442623153 57.0115516307
565 32 2 101.372803597 67.449438956 57.2793570838
566 32 2 100.376347468 67.5594064298 57.5409528591
567 32 2 99.3903430332 67.3634904466 57.7916761982
568 32 2 98.5055612588 66.8788971762 58.0278553358
569 32 2 97.8035469371 66.1491449514 58.2471441722
570 32 2 97.3491860954 65.2400976886 58.448736113
571 32 2 97.1847918083 64.2339615674 58.6334375889
572 32 2 97.3262474738 63.2217921576 58.8035945513
573 32 2 97.7615590844 62.2951949472 58.9628786448
574 32 2 98.4519484483 61.5379757466 59.1159525474
575 32 2 99.3353877185 61.0185020136 59.2680449791
576 32 2 100.332253065 60.783471342 59.4244741184
577 33 1 26.1056179415 20.9533509844 85.4657148833
578 33 1 20.6339445065 20.7839852189 84.7240302337
579 33 2 26.4062225784 20.8467173026 85.0122309275
580 33 2 26.8281150145 20.45895766 84.1490396143
581 33 2 27.0262352356 19.8654761404 83.323219976
582 33 2 26.9722131968 19.1291028964 82.5963870681
583 33 2 26.6606609462 18.3256922791 82.0211335706
584 33 2 26.1096637227 17.5372089174 81.636236105
585 33 2 25.3591315341 16.8442568603 81.4631208495
586 33 2 24.4671614672 16.3187327341 81.5039106
587 33 2 23.5047422934 16.0172725564 81.7412312824
588 33 2 22.5492840317 15.9760895151 82.1397955539
589 33 2 21.6775622328 16.2076732324 82.6496191492
590 33 2 20.9587200925 16.6996513697 83.2105768132
591 33 2 20.4479662342 17.4159173331 83.757882557
592 33 2 20.1815425909 18.2999212926 84.2279947278
593 33 2 20.1734210493 19.2798245482 84.5644076606
594 33 2 20.4140299499 20.2750474356 84.7228020186