LAMMPS input file for bananas

648 atoms

2 atom types

0 33.7373066121 xlo xhi
0 33.7373066121 ylo yhi
0 33.7373066121 zlo zhi

Masses

 1 1
 2 1

Atoms

1 1 1 11.2164133543 21.3468574429 21.8106956565
2 1 1 8.0819759497 20.8059189273 26.3072857652
3 1 2 11.3372685692 21.8691632097 21.6693752594
4 1 2 11.3308941473 22.8761467132 21.4272144419
5 1 2 11.0265237392 23.8496155799 21.2471719711
6 1 2 10.4545462252 24.7089218465 21.162716452
7 1 2 9.66974103865 25.3838226881 21.1986043945
8 1 2 8.74628539621 25.8208825697 21.3686238269
9 1 2 7.77099355283 25.9883435295 21.6743376118
10 1 2 6.83540427785 25.8790196987 22.104941002
11 1 2 6.02743772368 25.5109522447 22.638246419
12 1 2 5.42338210675 24.9257650422 23.2427056986
13 1 2 5.08094055958 24.1848709422 23.88028549
14 1 2 5.03397188588 23.363874412 24.5099337348
15 1 2 5.28940456275 22.5456807061 25.0913212806
16 1 2 5.82660525748 21.8129396211 25.5885176069
17 1 2 6.59925941435 21.2405125326 25.9732656457
18 1 2 7.53959250887 20.8886492949 26.2275572193
19 2 1 7.47127112839 11.6705737762 8.94238602534
20 2 1 3.17569978581 10.4749668052 12.1758401751
21 2 2 7.79705932217 12.0800790166 9.12554787331
22 2 2 8.20208003216 12.9607998521 9.49022211906
23 2 2 8.31096818916 13.9179534608 9.87061482348
24 2 2 8.11394096794 14.8609905661 10.2508247172
25 2 2 7.62909763264 15.7006485137 10.6149671926
26 2 2 6.90076991285 16.3570869506 10.9486220774
27 2 2 5.9954814705 16.7671647265 11.2401479338
28 2 2 4.9958847241 16.8901947758 11.4817430965
29 2 2 3.99322764747 16.7116524654 11.6701567403
30 2 2 3.07903714257 16.244499415 11.8069851709
31 2 2 2.33677698988 15.5280021348 11.8985263326
32 2 2 1.83424069705 14.6241531518 11.9552057936
33 2 2 1.61737258547 13.6120208161 11.9906265273
34 2 2 1.70608028037 12.5805427633 12.0203290943
35 2 2 2.09242026731 11.6204198582 12.0603752267
36 2 2 2.741321889 10.8158494333 12.1258839117
37 3 1 9.01702198733 7.20527312489 30.0449733328
38 3 1 12.8278972473 4.58523897529 33.0365090145
39 3 2 9.15687274202 7.30089318452 29.5170724688
40 3 2 9.61473288498 7.56616325438 28.6267387389
41 3 2 10.2983810261 7.90886814361 27.9282569215
42 3 2 11.154802951 8.28174591073 27.4808176201
43 3 2 12.1152372994 8.6347845633 27.3207306338
44 3 2 13.1014426919 8.91978030816 27.4581155684
45 3 2 14.0328288951 9.09473099668 27.8759795035
46 3 2 14.8338020686 9.12766433264 28.531765781
47 3 2 15.4406546258 8.9995519278 29.3612327524
48 3 2 15.8073717434 8.70604360907 30.2843089646
49 3 2 15.9098252967 8.25786390692 31.2123911243
50 3 2 15.7479729734 7.67983458799 32.0564196801
51 3 2 15.3458621297 7.00861232122 32.7349959904
52 3 2 14.7494380384 6.2893476738 33.1818012516
53 3 2 14.022356293 5.57156994655 33.351641002
54 3 2 13.240181036 4.9046729177 33.2245642873
55 4 1 18.2124412579 18.0010601501 7.28052200193
56 4 1 14.1503640737 21.7164680436 7.10189372362
57 4 2 18.3170532544 17.7905382579 7.78263515125
58 4 2 18.5174374761 17.6235000049 8.78495379159
59 4 2 18.6933468928 17.7615916041 9.79623261488
60 4 2 18.8111834774 18.1906060846 10.7315183391
61 4 2 18.8426421435 18.869820849 11.5127839323
62 4 2 18.7672905597 19.73570926 12.0760402414
63 4 2 18.5744314166 20.7077306567 12.3771681649
64 4 2 18.2640774131 21.6956710846 12.3959398064
65 4 2 17.8469500991 22.6078656785 12.1378621089
66 4 2 17.3435026799 23.3595532866 11.6336749344
67 4 2 16.7820558463 23.8806018686 10.9365493365
68 4 2 16.1962165382 24.1219005499 10.1172413831
69 4 2 15.6218149022 24.0598357415 9.25764322621
70 4 2 15.0936386197 23.6984433566 8.44331919375
71 4 2 14.642262248 23.0690409647 7.75570718749
72 4 2 14.2912605588 22.22737341 7.26469617677
73 5 1 9.80566003277 24.3831944319 16.0990960895
74 5 1 13.4810613234 28.0336082764 17.9706032478
75 5 2 9.32744976957 24.6004282105 15.9215991001
76 5 2 8.4384490507 25.1171157796 15.797462285
77 5 2 7.63147371007 25.7494003465 15.9447894622
78 5 2 6.98604903287 26.4555840928 16.3415636721
79 5 2 6.56697606895 27.1872337964 16.9430325685
80 5 2 6.41842546138 27.8935951879 17.6857872875
81 5 2 6.55991159517 28.5262188541 18.4935417316
82 5 2 6.98451399489 29.0433760701 19.2840855237
83 5 2 7.65950807854 29.413862086 19.9767769197
84 5 2 8.52934777883 29.6198402264 20.4998927506
85 5 2 9.52072818641 29.6584675808 20.7971654975
86 5 2 10.5492667898 29.5421541155 20.8329116901
87 5 2 11.5271943626 29.2974315902 20.5952842106
88 5 2 12.371354527 28.9625353699 20.0973520771
89 5 2 13.0107828872 28.583919534 19.3759092921
90 5 2 13.3931749479 28.2120229047 18.4881213219
91 6 1 26.7297764927 6.63245749422 16.6289764026
92 6 1 25.7955534973 2.92141335141 20.5902910445
93 6 2 27.2608802519 6.77680208898 16.5620870419
94 6 2 28.2456500504 7.07892396923 16.6700179667
95 6 2 29.1492859079 7.38481026483 17.0732227314
96 6 2 29.8982959792 7.64992048568 17.7376012041
97 6 2 30.4332814996 7.83343060133 18.6052490598
98 6 2 30.7143505745 7.90195387147 19.5997353632
99 6 2 30.7247540527 7.83258381836 20.633068724
100 6 2 30.4724120962 7.61498199532 21.6137171088
101 6 2 29.9891923122 7.25232026515 22.4549503588
102 6 2 29.3280052389 6.76099170668 23.0827450488
103 6 2 28.5579819126 6.16911649797 23.4425312149
104 6 2 27.7581730479 5.51397895488 23.5041660327
105 6 2 27.0103441072 4.83862932133 23.2646811291
106 6 2 26.3915229391 4.18796003472 22.7485531291
107 6 2 25.9669792182 3.60461408801 22.0054727791
108 6 2 25.7842755617 3.12509841332 21.1058159763
109 7 1 4.48061345041 17.7273958541 15.8078747581
110 7 1 6.14257148785 21.2537972292 19.6987645986
111 7 2 4.88655395691 17.5052934909 15.5024838659
112 7 2 5.71281628798 17.3143300988 14.9079068614
113 7 2 6.5722308738 17.4265580204 14.3408885774
114 7 2 7.40007867578 17.8290721297 13.86617953
115 7 2 8.13451775122 18.4825097047 13.5401168811
116 7 2 8.72221972244 19.3246380704 13.4054896926
117 7 2 9.12323029277 20.2760266794 13.4876389968
118 7 2 9.31461080673 21.2472866626 13.7921481348
119 7 2 9.29252895126 22.1472180111 14.3043338733
120 7 2 9.07260804474 22.8911218321 14.9905846809
121 7 2 8.68850307864 23.4085200724 15.8014241885
122 7 2 8.18883329582 23.6495791092 16.6760206212
123 7 2 7.63275087984 23.5896517437 17.5477311973
124 7 2 7.084549639 23.231523624 18.3501761615
125 7 2 6.60780506654 22.6051593525 19.0232888439
126 7 2 6.25957987028 21.7649714178 19.5187903253
127 8 1 4.10632008 23.3041085274 0.199464079364
128 8 1 4.88425525687 23.6210833557 5.6428985417
129 8 2 4.36752267252 23.6917542352 -0.0986713973445
130 8 2 4.75617257506 24.5632249987 -0.501397399406
131 8 2 4.9989497734 25.5568386647 -0.664153000702
132 8 2 5.09029034391 26.5835233408 -0.562793506329
133 8 2 5.03843277333 27.5511929388 -0.197246501554
134 8 2 4.86466707719 28.37314019 0.408481548081
135 8 2 4.60139436082 28.9759394188 1.2084933215
136 8 2 4.28917368081 29.3061387893 2.13918386824
137 8 2 3.97302536501 29.3351320736 3.12503776359
138 8 2 3.69832771837 29.0617659135 4.08551182182
139 8 2 3.50668110153 28.5124449412 4.94237605534
140 8 2 3.43211634315 27.738725178 5.62684380175
141 8 2 3.49799306324 26.8126150564 6.08584115645
142 8 2 3.71487060393 25.8200123455 6.28684429521
143 8 2 4.07954561782 24.8528751579 6.22084379774
144 8 2 4.57534403113 24.0008405983 5.9031657946
145 9 1 7.74022748178 8.28185550544 18.2557302219
146 9 1 5.24885075779 12.246701768 21.1556735076
147 9 2 7.66952500053 8.31194822401 17.7066616114
148 9 2 7.31009026258 8.38741175237 16.7382556035
149 9 2 6.68564754029 8.49761899714 15.9193392947
150 9 2 5.85391407908 8.65133812194 15.3216034406
151 9 2 4.89150025398 8.85337148085 14.9965797149
152 9 2 3.88692705925 9.10411791673 14.9709439506
153 9 2 2.93255802664 9.39953640949 15.2440848206
154 9 2 2.11618092273 9.73151438732 15.7881595558
155 9 2 1.51300649588 10.088607132 16.5506316232
156 9 2 1.17881353219 10.4570808865 17.4590590702
157 9 2 1.14486500153 10.8221645927 18.4276971118
158 9 2 1.41505865224 11.1693961724 19.3653131805
159 9 2 1.96557175803 11.485940646 20.1835021487
160 9 2 2.74703239621 11.7617599534 20.8047438503
161 9 2 3.68901935988 11.9905278542 21.1694685121
162 9 2 4.70648056818 12.170206521 21.2414861306
163 10 1 13.7018272025 7.42238380324 6.76668579277
164 10 1 14.4839810371 2.36317036806 4.73463517255
165 10 2 13.3501585507 7.73995740233 6.47883701273
166 10 2 12.8255550805 8.26727866859 5.75812781183
167 10 2 12.5033021678 8.65617343873 4.85390870723
168 10 2 12.3994730328 8.85853664735 3.84347963322
169 10 2 12.5102330659 8.84326430201 2.81382083458
170 10 2 12.8121893261 8.59908839886 1.85366521366
171 10 2 13.2645226469 8.13560392398 1.04541093469
172 10 2 13.8127080241 7.48239433616 0.457611396021
173 10 2 14.3934841956 6.68633523743 0.138727057899
174 10 2 14.9406194717 5.80732198339 0.112708603743
175 10 2 15.3909482998 4.91281063212 0.37681399957
176 10 2 15.6901283713 4.07166978703 0.901858411589
177 10 2 15.7975935506 3.34790369578 1.63487420371
178 10 2 15.6902511998 2.79481870198 2.50393857443
179 10 2 15.3645869149 2.45016473739 3.42472882705
180 10 2 14.8369848392 2.33269467451 4.30820780538
181 11 1 26.9189952025 22.0581205848 26.8071991625
182 11 1 23.0639940071 25.6080620044 28.5023441792
183 11 2 27.1002104735 22.1369573904 26.2891967153
184 11 2 27.2091550622 22.2872686956 25.2702581209
185 11 2 27.0123041487 22.4454933138 24.2658115274
186 11 2 26.5280415375 22.616234946 23.3663476374
187 11 2 25.8009466384 22.8029564531 22.6527886997
188 11 2 24.8977313596 23.0076642399 22.1891130014
189 11 2 23.9011597743 23.2307253853 22.0165236854
190 11 2 22.9025047432 23.4708341853 22.1496933667
191 11 2 21.9932290184 23.7251311589 22.5754268241
192 11 2 21.2566490415 23.9894636707 23.2538636537
193 11 2 20.7603412203 24.2587644145 24.1221112723
194 11 2 20.5499828031 24.527513264 25.0999771441
195 11 2 20.6451887106 24.7902403941 26.0972777815
196 11 2 21.0377237701 25.0420248182 27.0220583511
197 11 2 21.6922532954 25.2789429026 27.7889737264
198 11 2 22.5495636009 25.4984259781 28.3270671112
199 12 1 17.0441319765 6.6803245644 16.5501112712
200 12 1 17.8139308396 2.03902698343 19.4140947561
201 12 2 16.5930630966 6.97096538824 16.689558497
202 12 2 15.6420680153 7.30653532534 16.9255657929
203 12 2 14.6268243436 7.34469790939 17.1268669984
204 12 2 13.6396123288 7.07981970369 17.2940502662
205 12 2 12.7701573247 6.53388736185 17.4308133648
206 12 2 12.0974519412 5.75450369505 17.5436266528
207 12 2 11.6825564088 4.81054900219 17.6411433496
208 12 2 11.5630333581 3.78590310285 17.7334108542
209 12 2 11.7495242428 2.77180026687 17.8309549934
210 12 2 12.2247794445 1.85851383616 17.9438206649
211 12 2 12.9452304572 1.12712842847 18.0806563138
212 12 2 13.8449608578 0.642149630459 18.2479256862
213 12 2 14.8417141359 0.445624755689 18.4493187028
214 12 2 15.8443908115 0.553310520294 18.6854151482
215 12 2 16.761351527 0.953236926331 18.9536318273
216 12 2 17.5087693473 1.60679824502 19.2484580061
217 13 1 15.8343035892 23.6509061284 12.648333602
218 13 1 12.7253124 22.0259422271 8.40212340572
219 13 2 16.3057677437 23.3673890399 12.7170385012
220 13 2 17.0447526908 22.6506085916 12.8302873783
221 13 2 17.545401755 21.7465980249 12.8996680728
222 13 2 17.7675699607 20.7349962022 12.9008134339
223 13 2 17.6964939528 19.7052481915 12.8155754933
224 13 2 17.344137576 18.7484529611 12.6336795285
225 13 2 16.7481014522 17.9490603339 12.3536605332
226 13 2 15.9681959414 17.3771739644 11.9829967426
227 13 2 15.0809898376 17.0821618717 11.5374280435
228 13 2 14.1728316482 17.0881568828 11.0395213916
229 13 2 13.3319795196 17.3918570909 10.5166139881
230 13 2 12.6405571123 17.9628268015 9.99832168139
231 13 2 12.167068592 18.7462705377 9.51383968528
232 13 2 11.9601549449 19.6680272714 9.0892816357
233 13 2 12.0441606852 20.6413296936 8.74529951168
234 13 2 12.4169150194 21.5747124589 8.49520134904
235 14 1 13.785739881 30.7955449991 10.0364799334
236 14 1 14.6364450907 25.9977062006 12.6042958218
237 14 2 14.0796584814 30.8694833585 9.57223244885
238 14 2 14.8096238188 30.944031051 8.84127997508
239 14 2 15.7150406378 30.9154925691 8.33918017425
240 14 2 16.7130253472 30.7689923141 8.10410047281
241 14 2 17.7122574274 30.5004060945 8.14987124588
242 14 2 18.6213026693 30.1167370173 8.46472527335
243 14 2 19.3569467757 29.6354772031 9.01237024136
244 14 2 19.8517797743 29.083013499 9.73529653785
245 14 2 20.0603399741 28.4922224983 10.5600188594
246 14 2 19.963257487 27.8994740649 11.4037738929
247 14 2 19.5690196603 27.3413164691 12.1820636239
248 14 2 18.9131975132 26.8511452636 12.8163567515
249 14 2 18.0552036823 26.4561595077 13.2412462781
250 14 2 17.0728773669 26.1748827595 13.4104109083
251 14 2 16.05538982 26.0154747808 13.3008369181
252 14 2 15.0951169997 25.9749878306 12.9149156975
253 15 1 23.9954157479 12.6356925688 9.32163385247
254 15 1 20.6011619696 8.3253768354 8.83495686082
255 15 2 23.9062048931 13.0474910119 8.96129482147
256 15 2 23.7445209108 13.6430915593 8.12953971999
257 15 2 23.5862005415 13.9660828148 7.15829846231
258 15 2 23.4266380818 13.9872631645 6.13517115579
259 15 2 23.2613410366 13.7049389894 5.15248696539
260 15 2 23.0863395788 13.1450790269 4.29888894332
261 15 2 22.898548372 12.3589474989 3.65125482257
262 15 2 22.6960477777 11.4184317288 3.26769013865
263 15 2 22.4782588173 10.4094901056 3.18223230838
264 15 2 22.2459959419 9.42431756539 3.40174835272
265 15 2 22.0013928007 8.55294265532 3.9053090149
266 15 2 21.7477077735 7.87502204886 4.64609631866
267 15 2 21.4890269919 7.45258038601 5.55567070583
268 15 2 21.229891916 7.32435715265 6.5502088328
269 15 2 20.9748854121 7.50227584201 7.53814349359
270 15 2 20.728214055 7.97035720999 8.4285093429
271 16 1 16.3361407676 16.5299649475 2.23128447162
272 16 1 16.8249629445 20.7787439019 5.70195662598
273 16 2 16.2276461234 16.6670154609 1.70514112556
274 16 2 15.8550928841 17.0535863629 0.819440672455
275 16 2 15.3013947181 17.591426182 0.12890107102
276 16 2 14.6277143727 18.2471374705 -0.305720338352
277 16 2 13.9061501483 18.9765796046 -0.446991403876
278 16 2 13.2131646322 19.7288918995 -0.284216846366
279 16 2 12.6226156589 20.451129212 0.165586939391
280 16 2 12.1990246739 21.0930875272 0.859242812359
281 16 2 11.991696047 21.6118797105 1.73134818563
282 16 2 12.0302233167 21.9758443758 2.7002360238
283 16 2 12.321791942 22.1674316038 3.67541823335
284 16 2 12.8505243976 22.1848024967 4.56583303198
285 16 2 13.5789273007 22.0419967812 5.28814460568
286 16 2 14.4513086763 21.7676531837 5.7743385969
287 16 2 15.3988538988 21.4023992067 5.97792114687
288 16 2 16.3458976732 20.9951482104 5.87815649207
289 17 1 17.9687013866 23.0871006991 30.6373353439
290 17 1 13.0472517536 21.0514698347 32.0416769762
291 17 2 18.1358855244 23.524620976 30.9339937721
292 17 2 18.2344751547 24.4252148355 31.4358991976
293 17 2 18.0431084238 25.3574819354 31.8445005924
294 17 2 17.5731074438 26.2318247527 32.1400035325
295 17 2 16.8611899284 26.9639251659 32.3129217426
296 17 2 15.9661226247 27.482429473 32.3649417052
297 17 2 14.9633651275 27.7354517928 32.3087689489
298 17 2 13.9381922543 27.6953031073 32.1669700272
299 17 2 12.9779218305 27.3610149253 31.9699157312
300 17 2 12.1639562681 26.7584275541 31.7530130006
301 17 2 11.5643632943 25.9378349328 31.5534778241
302 17 2 11.2276720443 24.9694006843 31.4069432565
303 17 2 11.1784499638 23.936763182 31.3442117108
304 17 2 11.4150636548 22.929412486 31.388447529
305 17 2 11.9098277482 22.0345339372 31.5530657112
306 17 2 12.6115282356 21.3290618115 31.8405092305
307 18 1 28.5557416873 17.6230170145 16.6194939668
308 18 1 28.1319987711 12.9126824473 19.4425818386
309 18 2 28.2507006544 18.0427895642 16.8147418257
310 18 2 27.5075376623 18.6679570821 17.174703786
311 18 2 26.6009162754 19.0348692449 17.51545501
312 18 2 25.6151503924 19.1076199225 17.8247626788
313 18 2 24.6417673905 18.8771137878 18.0932598379
314 18 2 23.7711660318 18.3618952926 18.3152991309
315 18 2 23.0843772368 17.6064584685 18.4894675176
316 18 2 22.6456786705 16.6771916009 18.6187150624
317 18 2 22.496736275 15.6563263917 18.7100860567
318 18 2 22.6528067036 14.6344431038 18.7740769796
319 18 2 23.1013467823 13.7022147908 18.8236798162
320 18 2 23.8031567333 12.9421430702 18.8731979267
321 18 2 24.6959529666 12.4210386662 18.936942394
322 18 2 25.7000448019 12.1839320709 19.0279276656
323 18 2 26.7255977281 12.2499693227 19.1566853767
324 18 2 27.6808212023 12.6106669772 19.3303044636
325 19 1 30.4644592518 24.850751372 9.60705944209
326 19 1 27.3721410863 21.5487127299 12.7488334786
327 19 2 30.5019912827 25.3753183643 9.78256319948
328 19 2 30.3375811258 26.3401892472 10.1212249048
329 19 2 29.8833672262 27.2061167556 10.4626301695
330 19 2 29.181723626 27.8918439481 10.7945529722
331 19 2 28.297575888 28.3325379065 11.1056315529
332 19 2 27.3124835758 28.485698812 11.3864039599
333 19 2 26.3172066589 28.3350335123 11.630170441
334 19 2 25.4034333638 27.8919405305 11.8336040807
335 19 2 24.6554234206 27.1944711681 11.9970540253
336 19 2 24.1423283663 26.3038613895 12.1245136609
337 19 2 23.9118888565 25.2989505842 12.2232566436
338 19 2 23.9860834317 24.2689958961 12.3031739552
339 19 2 24.3591253243 23.3055370478 12.3758724087
340 19 2 24.9979898825 22.4940531218 12.4536167663
341 19 2 25.8454245412 21.9061717284 12.5482118907
342 19 2 26.8251670005 21.59314064 12.6699268128
343 20 1 21.0227966277 26.3885662642 18.9144055468
344 20 1 19.4494235368 21.3394707671 20.4531604671
345 20 2 21.5292982548 26.41950871 18.6910685405
346 20 2 22.5381293079 26.3559606392 18.4654143358
347 20 2 23.5476637009 26.126791068 18.4973500213
348 20 2 24.4665261327 25.7368654937 18.7736617095
349 20 2 25.2116054298 25.2057012211 19.2588623152
350 20 2 25.7156295597 24.5656884941 19.8984259608
351 20 2 25.9332970159 23.8591383468 20.623757636
352 20 2 25.8454057395 23.1344262431 21.3584451623
353 20 2 25.460603255 22.4415829847 22.0252236399
354 20 2 24.8145985078 21.8277347464 22.553017613
355 20 2 23.9669072389 21.3328078486 22.8834191105
356 20 2 22.9954275328 20.9858897471 22.9760111322
357 20 2 21.9893399414 20.8025779102 22.8120513811
358 20 2 21.0409792881 20.7835582172 22.3961804952
359 20 2 20.2374189817 20.9145424449 21.7559990857
360 20 2 19.652534872 21.1675705411 20.9395521297
361 21 1 26.464215657 25.9832221946 20.082250148
362 21 1 28.8921676263 29.9356275029 17.1123719619
363 21 2 26.8087418915 25.6681978994 20.3813189007
364 21 2 27.5682694065 25.0600470772 20.7362397406
365 21 2 28.4277550815 24.486087815 20.803718706
366 21 2 29.3216131115 24.011482928 20.5835680883
367 21 2 30.1811248871 23.6923397615 20.1018156435
368 21 2 30.9407022243 23.5705963908 19.4083323405
369 21 2 31.5438652781 23.6701992533 18.5722869641
370 21 2 31.948390293 23.9949205946 17.6758418548
371 21 2 32.130158009 24.5280146546 16.8066643748
372 21 2 32.0853519665 25.2337439283 16.0499366286
373 21 2 31.8308063506 26.0606363948 15.4805916986
374 21 2 31.4024716705 26.9461768387 15.156484008
375 21 2 30.8521381172 27.8225046838 15.1131162873
376 21 2 30.2427152425 28.6225990188 15.3604037433
377 21 2 29.6424981846 29.2863870944 15.8817703564
378 21 2 29.1189430347 29.7662195423 16.6356596706
379 22 1 21.9918874143 23.8758080074 26.2640317239
380 22 1 21.9097607793 28.8633975175 28.5993777414
381 22 2 22.4443567981 23.5735262901 26.3702295193
382 22 2 23.4028779272 23.2040176732 26.5021344027
383 22 2 24.4339919929 23.1206928681 26.5527212736
384 22 2 25.4470407494 23.3354919002 26.5356372498
385 22 2 26.35301248 23.8331828512 26.470697187
386 22 2 27.0726548047 24.5727501439 26.382077691
387 22 2 27.5436979916 25.4911328309 26.2961135855
388 22 2 27.7265304154 26.5089721676 26.2388976735
389 22 2 27.6078088861 27.5378446176 26.2339025574
390 22 2 27.2016747891 28.4883210519 26.299841272
391 22 2 26.5484651946 29.278117601 26.4489617197
392 22 2 25.7110364106 29.8395952649 26.6859303583
393 22 2 24.7690350611 30.1259247451 27.0074068853
394 22 2 23.8116388426 30.1153546132 27.4023486836
395 22 2 22.9294285881 29.813193805 27.8530172802
396 22 2 22.2061324457 29.2513277474 28.3365950867
397 23 1 3.70114125725 23.2937043943 19.5366794366
398 23 1 7.07958079053 20.3192166924 22.7108256459
399 23 2 3.51577062463 23.7634071292 19.7655851399
400 23 2 3.11533754876 24.4999998338 20.3736828379
401 23 2 2.6899262667 25.0000800828 21.174709215
402 23 2 2.2937484565 25.2241093108 22.1050598579
403 23 2 1.97835136566 25.1577091108 23.0893433331
404 23 2 1.78791963294 24.8129717267 24.0472525993
405 23 2 1.75524816152 24.2273579283 24.9008844434
406 23 2 1.89875308835 23.4602827194 25.5818398244
407 23 2 2.22079327959 22.587700067 26.0374579771
408 23 2 2.70745533607 21.6951802184 26.2356160797
409 23 2 3.32982170431 20.8701105594 26.1676570288
410 23 2 4.04660631319 20.1937308537 25.849178475
411 23 2 4.8079175163 19.733728795 25.3186112039
412 23 2 5.55980537345 19.5380707382 24.6337164338
413 23 2 6.24917881783 19.6306298945 23.8663212762
414 23 2 6.82864454274 20.0090104525 23.0957721875
415 24 1 23.4322104787 16.5285596371 17.3185418882
416 24 1 20.0772825542 12.6506209457 15.3078989428
417 24 2 23.2180894882 16.8365242773 17.7268196533
418 24 2 22.6379809331 17.4364759445 18.3401958285
419 24 2 21.86271695 18.0092468592 18.7191384453
420 24 2 20.9530094067 18.489651478 18.8388959464
421 24 2 19.9818237798 18.8209228119 18.6983397208
422 24 2 19.0277288517 18.9598863485 18.3200669691
423 24 2 18.1677357048 18.8808951125 17.7483411231
424 24 2 17.4702786891 18.578167212 17.0450575384
425 24 2 16.9889781009 18.0663128179 16.2841021558
426 24 2 16.7577530601 17.3790025473 15.5446173057
427 24 2 16.7877300148 16.5658986176 14.9037884263
428 24 2 17.0662286421 15.6881284755 14.4298091406
429 24 2 17.5579175727 14.8127134498 14.175665875
430 24 2 18.2080346027 14.0064602166 14.17430851
431 24 2 18.947377893 13.3298718287 14.4356472242
432 24 2 19.6986132428 12.8316332774 14.9456492499
433 25 1 2.45504472488 25.3070494288 18.3801024792
434 25 1 6.95490370382 28.377739064 19.1917484988
435 25 2 2.44193432472 24.8295538642 18.6615396032
436 25 2 2.63277408827 23.9093393474 19.0968368566
437 25 2 3.09376354138 23.0307892169 19.3940517004
438 25 2 3.79060357069 22.279122758 19.5427452753
439 25 2 4.66749889982 21.7279946794 19.5460154176
440 25 2 5.65224344628 21.4327819913 19.4202143124
441 25 2 6.66280141087 21.4255367706 19.1934581039
442 25 2 7.61478427829 21.712064834 18.9030643021
443 25 2 8.42914225175 22.2713965773 18.5921505471
444 25 2 9.03936909998 23.0576982115 18.3057047322
445 25 2 9.39756374423 24.0044491979 18.0864846655
446 25 2 9.47879611318 25.0305051396 17.9711209892
447 25 2 9.28337934802 26.0474935367 17.9867785477
448 25 2 8.83684126179 26.9678683338 18.148680498
449 25 2 8.18759765421 27.7128891428 18.4587208233
450 25 2 7.40253954352 28.2197978892 18.9052917098
451 26 1 2.95265689095 16.7856848161 32.9806193306
452 26 1 3.22621286808 17.7482134225 27.56440841
453 26 2 3.38972039877 16.9609343798 33.2732690055
454 26 2 4.32862317422 17.1720570418 33.6561359156
455 26 2 5.35420875574 17.2295019376 33.7886974863
456 26 2 6.37708953952 17.1444955833 33.6501800036
457 26 2 7.30812444549 16.9412479497 33.2445167512
458 26 2 8.06654351566 16.6547458896 32.5999895178
459 26 2 8.58730954201 16.327564326 31.7666509063
460 26 2 8.82704576205 16.0059858397 30.8117623824
461 26 2 8.76798935342 15.7357823295 29.8136638528
462 26 2 8.41961039325 15.5580432173 28.85463352
463 26 2 7.81774872567 15.5054304291 28.0133887883
464 26 2 7.02134740565 15.5992014842 27.3579117118
465 26 2 6.10708044372 15.8472720184 26.9392528967
466 26 2 5.16236449554 16.2434943278 26.7868785882
467 26 2 4.27739143315 16.76821769 26.9059850245
468 26 2 3.53690797411 17.3900793924 27.277024835
469 27 1 2.7267404877 22.3919993998 24.064745225
470 27 1 7.06386897855 24.5315282343 26.7007208977
471 27 2 2.43625217465 22.7516991438 23.7587821786
472 27 2 1.89692665261 23.5525464145 23.3839890337
473 27 2 1.41688571521 24.4652636391 23.2880398939
474 27 2 1.05372182668 25.4175406232 23.4723733054
475 27 2 0.854374909561 26.3334615717 23.9128819816
476 27 2 0.850854092582 27.1404242927 24.562110017
477 27 2 1.05732029806 27.7757573897 25.3535781673
478 27 2 1.46879557091 28.1924323298 26.207842977
479 27 2 2.06161678511 28.363349772 27.0397375058
480 27 2 2.79559237542 28.2838094862 27.766133711
481 27 2 3.61766552298 27.971938747 28.3135189986
482 27 2 4.4667499206 27.467040157 28.6246963929
483 27 2 5.27929737083 26.8260094841 28.6639976477
484 27 2 5.99508976849 26.1181500021 28.4205341632
485 27 2 6.56272756806 25.4188559726 27.9091894069
486 27 2 6.94431449988 24.8027409748 27.1692623875
487 28 1 15.0259048036 13.3928941976 16.0676933294
488 28 1 9.79202529305 12.6015821165 17.5898514637
489 28 2 15.3626365467 13.5754939188 16.4685047897
490 28 2 15.8223466004 14.0766735821 17.2496474673
491 28 2 16.020404618 14.7367794929 18.022778426
492 28 2 15.9323855034 15.4859154844 18.7325292081
493 28 2 15.5599381292 16.2460709085 19.3293080246
494 28 2 14.9306350541 16.9382307711 19.7738197065
495 28 2 14.0954594729 17.4895774076 20.0406471902
496 28 2 13.1241584478 17.8401273134 20.1205681087
497 28 2 12.0988859418 17.9481982292 20.0213953466
498 28 2 11.1067150485 17.7942081932 19.76726495
499 28 2 10.2317018765 17.3824603027 19.3964362908
500 28 2 9.54722441116 16.7407505162 18.9578049873
501 28 2 9.10929461463 15.9178342422 18.5064464042
502 28 2 8.9514533194 14.9789826185 18.0985959105
503 28 2 9.08171321136 14.0000334949 17.7865234108
504 28 2 9.48182852844 13.0604793335 17.6137693026
505 29 1 10.6729341262 14.7524657457 19.2435031546
506 29 1 7.85413200488 11.1728682284 22.3382521173
507 29 2 10.5944766374 15.2863912182 19.3705809413
508 29 2 10.2203106781 16.2257445047 19.5948876713
509 29 2 9.58051116673 17.0138875772 19.8002784053
510 29 2 8.73242617607 17.5783026273 19.9870557351
511 29 2 7.75238757235 17.8668631218 20.1572187373
512 29 2 6.7287538889 17.8525847791 20.31428077
513 29 2 5.75385705172 17.5360850012 20.4629492553
514 29 2 4.9155869574 16.9455266019 20.6086966294
515 29 2 4.28938091163 16.1340509593 20.7572615676
516 29 2 3.93134803604 15.1749345438 20.9141259439
517 29 2 3.87315530639 14.1549102697 21.0840151951
518 29 2 4.11914132489 13.1662623854 21.2704676301
519 29 2 4.64592088634 12.2984153961 21.4755119372
520 29 2 5.40451637925 11.6297836338 21.699482283
521 29 2 6.32482175931 11.2206243286 21.9409878553
522 29 2 7.32199223474 11.1075455748 22.1970396264
523 30 1 27.8450440933 29.5447558923 9.26530663865
524 30 1 25.0261820921 24.8625667631 9.94923419525
525 30 2 27.8367339246 29.8900712596 9.69897585578
526 30 2 27.5887593527 30.5006985557 10.4979384256
527 30 2 27.060443441 31.0074035584 11.2306256773
528 30 2 26.3009956345 31.351826035 11.8448816972
529 30 2 25.3806914659 31.4903966927 12.2993447662
530 30 2 24.3844674223 31.3983082206 12.5672171974
531 30 2 23.4041795671 31.071776306 12.638707761
532 30 2 22.5302314891 30.5283845488 12.5219240881
533 30 2 21.8433346357 29.8054818365 12.2421337158
534 30 2 21.4071520177 28.9567782495 11.8394611239
535 30 2 21.262495762 28.0474497555 11.3652306644
536 30 2 21.4236073664 27.1481978667 10.8772886981
537 30 2 21.8768596849 26.3288056819 10.4347312956
538 30 2 22.5819989479 25.6517776355 10.0925180359
539 30 2 23.4758136181 25.1666426465 9.89646281712
540 30 2 24.4778956884 24.9054398975 9.87905823417
541 31 1 19.2146166922 16.8646348194 26.5015638866
542 31 1 18.7505391864 11.4878801579 27.6023710019
543 31 2 19.4504273415 16.9857786748 26.0146365248
544 31 2 20.0568514223 17.062369283 25.1785252978
545 31 2 20.8234418726 16.9273919327 24.4952841489
546 31 2 21.6731119047 16.5795589207 24.0159394886
547 31 2 22.5212025968 16.0369828779 23.7729339603
548 31 2 23.2831989732 15.3355259273 23.7771695161
549 31 2 23.8824329644 14.5255310972 24.0170137781
550 31 2 24.2570711769 13.6672338997 24.4593602504
551 31 2 24.3657505823 12.8252722763 25.0526457488
552 31 2 24.1913484739 12.0627952931 25.7315500321
553 31 2 23.7425430845 11.4357075361 26.4229492934
554 31 2 23.0530226243 10.9875737916 27.0525808945
555 31 2 22.1784148321 10.7456484147 27.551811896
556 31 2 21.1912168878 10.7183912812 27.8638944789
557 31 2 20.1741877919 10.8946967289 27.9491381195
558 31 2 19.2128054497 11.2449057614 27.7885271087
559 32 1 13.9762990806 27.7262594585 3.17283356409
560 32 1 18.1930345647 29.9749579024 0.434379238597
561 32 2 14.1083503549 27.4929107905 3.65810834368
562 32 2 14.521341395 26.9498411269 4.43734644101
563 32 2 15.1276263079 26.3218248939 4.99476234194
564 32 2 15.8849843955 25.678284915 5.28624697932
565 32 2 16.7374256754 25.0900588964 5.29192909742
566 32 2 17.6202939844 24.6229430564 5.01798638067
567 32 2 18.4661599441 24.3316952507 4.49608240002
568 32 2 19.2109666865 24.2550441694 3.78048069562
569 32 2 19.7998681983 24.4121594824 2.9430990271
570 32 2 20.1922281594 24.8009046559 2.06695456289
571 32 2 20.3653236642 25.3980316818 1.23859743448
572 32 2 20.3164162592 26.1612999753 0.540222285353
573 32 2 20.0630015338 27.033326314 0.0421767927339
574 32 2 19.6412145179 27.9468149253 -0.203450040854
575 32 2 19.1025362209 28.8306910346 -0.167575443052
576 32 2 18.5091014915 29.6165788442 0.153226433034
577 33 1 14.4678328486 8.01395837705 1.80740117352
578 33 1 12.3126264499 3.93975613829 4.82279441879
579 33 2 14.1246622045 8.43679802243 1.70337572005
580 33 2 13.3366939246 9.05582811363 1.44144823554
581 33 2 12.4137589864 9.40504495219 1.12690575737
582 33 2 11.4305865013 9.45409548831 0.804936534365
583 33 2 10.4673958202 9.19998477267 0.52140571223
584 33 2 9.60258508945 8.66734892556 0.318675039961
585 33 2 8.90558579754 7.9062097234 0.231741886872
586 33 2 8.43053457078 6.98741545678 0.285049472323
587 33 2 8.21133899104 5.99618359452 0.49025903386
588 33 2 8.25858715215 5.02433379563 0.845186985368
589 33 2 8.55858262773 4.16191917695 1.33400393597
590 33 2 9.07459280655 3.48901858891 1.92867743047
591 33 2 9.7501968182 3.06843797742 2.59152691548
592 33 2 10.5144279086 2.93998605242 3.27865806348
593 33 2 11.288241573 3.11684599696 3.94396343985