LAMMPS input file for bananas

648 atoms

2 atom types

0 33.7373066121 xlo xhi
0 33.7373066121 ylo yhi
0 33.7373066121 zlo zhi

Masses

 1 1
 2 1

Atoms

1 1 1 2.76299615887 29.8155997767 29.2690284154
2 1 1 7.54467037403 29.3589952568 26.5738959624
3 1 2 2.78745216766 30.0974482546 29.7458345508
4 1 2 3.01378518089 30.4800573641 30.6812926779
5 1 2 3.46630293643 30.6572653656 31.5959091419
6 1 2 4.11600499188 30.6268495968 32.4019242728
7 1 2 4.91591890778 30.4055108782 33.0214766676
8 1 2 5.80538146349 30.0273513485 33.3936997232
9 1 2 6.7155676938 29.5407662879 33.4802692102
10 1 2 7.57576381263 29.0040332206 33.2688962633
11 1 2 8.31981228984 28.4800003176 32.7744474275
12 1 2 8.89214165649 28.0303582171 32.0375896741
13 1 2 9.25283146325 27.7100173457 31.1210838856
14 1 2 9.38125075565 27.5621032093 30.1040646307
15 1 2 9.27793844414 27.6140257994 29.074827592
16 1 2 8.96455418608 27.8749813597 28.1227820188
17 1 2 8.48190425648 28.3351142119 27.3303016878
18 1 2 7.88622233582 28.9664150331 26.765217098
19 2 1 10.7002829826 23.03746337 28.7764955222
20 2 1 6.46835547283 26.5536547331 29.0291272244
21 2 2 11.1333811897 23.1668439145 29.0975365934
22 2 2 11.9205676252 23.619564506 29.595612745
23 2 2 12.6089174733 24.3149555203 29.9351773117
24 2 2 13.1270374341 25.1963109749 30.1008955664
25 2 2 13.419049495 26.1899755034 30.0932776816
26 2 2 13.4496838284 27.2120575374 29.9286322304
27 2 2 13.2074933942 28.1760754475 29.637579772
28 2 2 12.7058972596 29.0008397515 29.2622619976
29 2 2 11.9819575428 29.6178529783 28.8525008043
30 2 2 11.0930014552 29.9775527433 28.4612573707
31 2 2 10.1113963187 30.0538290197 28.1398051085
32 2 2 9.11795378131 29.8464038886 27.9330564425
33 2 2 8.19456438852 29.3808568691 27.8754693515
34 2 2 7.41673382222 28.706293521 27.987906759
35 2 2 6.84670107516 27.8908698092 28.2757350213
36 2 2 6.52776579356 27.0155801551 28.728334821
37 3 1 15.087986411 18.5207498492 30.436698741
38 3 1 11.7657964477 14.1393716794 30.7579682667
39 3 2 15.5305431381 18.4571231403 30.1088635128
40 3 2 16.3868683237 18.1402587113 29.619984815
41 3 2 17.2066181865 17.5837753469 29.3182652455
42 3 2 17.9077665177 16.8282649602 29.2168091246
43 3 2 18.4190968248 15.932459413 29.3104681321
44 3 2 18.6866932269 14.9678775089 29.5763105419
45 3 2 18.6788545175 14.0123065448 29.975711291
46 3 2 18.388983512 13.1427125325 30.4578723896
47 3 2 17.836188336 12.4282252739 30.9644528094
48 3 2 17.0635408506 11.9238376538 31.4348858685
49 3 2 16.1341509477 11.6653934153 31.811899469
50 3 2 15.1254145156 11.6663202487 32.0467360562
51 3 2 14.121959335 11.9164059492 32.1035965353
52 3 2 13.2079318367 12.3827291896 31.9629031136
53 3 2 12.4593277313 13.0126600734 31.6230836821
54 3 2 11.9370655213 13.7386569893 31.1007151021
55 4 1 5.10009935323 0.224569521595 8.34945176345
56 4 1 1.3835217984 2.58668039687 5.04126216508
57 4 2 5.32845585305 0.561760153237 8.72566518501
58 4 2 5.79152812477 1.33076566656 9.24228193147
59 4 2 6.25212368457 2.22731748163 9.48049369498
60 4 2 6.6533634395 3.1804563006 9.42364897723
61 4 2 6.94377817127 4.11406530818 9.08198865524
62 4 2 7.08199960263 4.95380769749 8.4917125956
63 4 2 7.04053083222 5.63390196037 7.71168028488
64 4 2 6.80825248856 6.10311742079 6.81804619093
65 4 2 6.39143618461 6.32944355977 5.8973188053
66 4 2 5.81317290315 6.3030075547 5.03847598729
67 4 2 5.11126841211 6.03697411945 4.32485524217
68 4 2 4.33479752794 5.56634563092 3.82655807891
69 4 2 3.5396312826 4.94477190242 3.5940607383
70 4 2 2.78334466205 4.23966037096 3.65361362961
71 4 2 2.119969041 3.52603237156 4.00484878583
72 4 2 1.59506759358 2.87968545691 4.62081340129
73 5 1 7.99806765747 7.80442647103 12.2820201343
74 5 1 11.9947044334 4.01484596444 12.3330984302
75 5 2 8.17202010902 8.32959807265 12.2457422473
76 5 2 8.63778858508 9.24810610525 12.3557467556
77 5 2 9.26092599776 10.0104590752 12.6770192026
78 5 2 9.99926932216 10.5455429463 13.1681736155
79 5 2 10.8001553044 10.8029577026 13.7723404449
80 5 2 11.6052203562 10.7576109639 14.4223498347
81 5 2 12.3557199956 10.4120049851 15.0468536935
82 5 2 12.997883004 9.79600859155 15.5768285844
83 5 2 13.4878123039 8.96413484159 15.9518667375
84 5 2 13.7954858766 7.9905725343 16.1256818047
85 5 2 13.9074930634 6.96242440936 16.0703275422
86 5 2 13.8282568551 5.97176832949 15.7787449196
87 5 2 13.5796307668 5.10726501454 15.2654055019
88 5 2 13.1989070399 4.44607722477 14.5649924655
89 5 2 12.7354177098 4.04683690426 13.7292394647
90 5 2 12.2460383291 3.94430128123 12.8222154634
91 6 1 30.3189867321 1.4390740932 11.4924761583
92 6 1 31.2225982738 2.09387835338 16.886116162
93 6 2 30.5318381524 1.83527399322 11.1682838331
94 6 2 30.8207523125 2.719721176 10.7133332203
95 6 2 30.9596423139 3.7231061366 10.4974016121
96 6 2 30.9524539498 4.75751493729 10.5488314824
97 6 2 30.8164470549 5.73220603002 10.8715971395
98 6 2 30.5806223898 6.56188072637 11.4449424949
99 6 2 30.2830784202 7.17445758822 12.2252728388
100 6 2 29.9675389036 7.51764215662 13.1501281986
101 6 2 29.6793677682 7.56369323317 14.1438761375
102 6 2 29.4614345016 7.31195130009 15.1246051325
103 6 2 29.3502068915 6.78889863072 16.0115902479
104 6 2 29.3724272366 6.04574561188 16.73265066
105 6 2 29.5426749693 5.1537632682 17.2307284443
106 6 2 29.8620378404 4.19778739691 17.4690890139
107 6 2 30.3180127784 3.2684863665 17.4346692254
108 6 2 30.8856454586 2.45409731663 17.1392679949
109 7 1 28.4714661632 8.57400304327 1.2278030159
110 7 1 29.6216304666 4.91918650769 5.1845786089
111 7 2 27.9410350572 8.7331153301 1.20121592023
112 7 2 26.9084781997 8.79883070695 1.15424682051
113 7 2 25.900925217 8.56018292337 1.13011191724
114 7 2 25.0055719631 8.03992715654 1.14947060391
115 7 2 24.2993880556 7.28648522059 1.2290181315
116 7 2 23.8421016237 6.36953225022 1.37996395077
117 7 2 23.6707554976 5.37364628987 1.60701004773
118 7 2 23.7963310095 4.39059958483 1.90792238981
119 7 2 24.2027471197 3.51099417031 2.27373454266
120 7 2 24.8483260937 2.81600411708 2.68956489911
121 7 2 25.6695921415 2.36997707149 3.13597303568
122 7 2 26.587056801 2.21456940864 3.59073157386
123 7 2 27.512463766 2.36494953943 4.03085205331
124 7 2 28.3568328438 2.80841541386 4.43468017237
125 7 2 29.0385698894 3.50555222584 4.78386942919
126 7 2 29.4909035526 4.39382480252 5.06505327962
127 8 1 7.7176064712 27.5713631305 27.7958004141
128 8 1 4.0025370902 24.3034703114 25.3759303878
129 8 2 7.76360478908 27.5093569769 28.3448178485
130 8 2 7.61538272224 27.4157677954 29.3655869483
131 8 2 7.17413407923 27.342592969 30.2997407637
132 8 2 6.47819881666 27.277630798 31.0640393296
133 8 2 5.58912983033 27.2079310556 31.590723822
134 8 2 4.58608283085 27.1209753122 31.8336923109
135 8 2 3.55860184325 27.0058179041 31.7727016347
136 8 2 2.59845788308 26.8540835564 31.4152124257
137 8 2 1.79128465749 26.6607307311 30.7957091247
138 8 2 1.20877363997 26.4245111293 29.9725569606
139 8 2 0.902139884048 26.1480834648 29.0226823598
140 8 2 0.897454122302 25.8377711407 28.0345616302
141 8 2 1.19326659783 25.5029859145 27.100156952
142 8 2 1.76073919964 25.1553700808 26.3065346556
143 8 2 2.54627385877 24.8077353562 25.7279297224
144 8 2 3.47639764479 24.4728951793 25.4189797756
145 9 1 9.13879890154 17.2916805516 30.7525257939
146 9 1 6.96175793465 17.9439400305 25.7353866562
147 9 2 9.65313109983 17.4894705954 30.8135359569
148 9 2 10.6559729064 17.7351315492 30.731943813
149 9 2 11.6320907168 17.8141360998 30.3948228077
150 9 2 12.4917341552 17.7352714929 29.8225538119
151 9 2 13.1557686862 17.5217136653 29.0569498234
152 9 2 13.5628881849 17.2089149177 28.1574449995
153 9 2 13.6752025706 16.8413726801 27.1956776402
154 9 2 13.4816912271 16.4685738763 26.2489608489
155 9 2 12.9992074568 16.14048453 25.3932359729
156 9 2 12.2709424174 15.9029957046 24.6961510704
157 9 2 11.3624885445 15.7937408469 24.2108952534
158 9 2 10.3558612502 15.8386657569 23.9713508652
159 9 2 9.34202378096 16.0496638058 23.9890053372
160 9 2 8.41259654125 16.4234919369 24.2519041876
161 9 2 7.65150652186 16.9420662477 24.7257405915
162 9 2 7.12733793006 17.574110214 25.3569822117
163 10 1 8.52491565749 6.33900259968 8.93124692369
164 10 1 5.72470211752 2.70447268507 11.9784803177
165 10 2 8.31804388688 6.85337614969 8.92908516281
166 10 2 7.7300325454 7.70420364762 8.87400792483
167 10 2 6.92331386531 8.34576179298 8.77248754068
168 10 2 5.96572994947 8.72150352064 8.65186635966
169 10 2 4.93887323265 8.79910910948 8.54122763774
170 10 2 3.93064989047 8.57343190338 8.46874479818
171 10 2 3.02726779423 8.06696739364 8.45911361719
172 10 2 2.30537925444 7.32780290918 8.53130137317
173 10 2 1.82509468828 6.4252347862 8.69681810942
174 10 2 1.62450396721 5.44345248224 8.95866757255
175 10 2 1.71620478631 4.47386528433 9.31107344157
176 10 2 2.08615447076 3.60677097921 9.74000579996
177 10 2 2.69494986937 2.92312582911 10.2244598664
178 10 2 3.48141868165 2.48716596357 10.7383704365
179 10 2 4.36819489361 2.34055269657 11.2529875475
180 10 2 5.26877015947 2.49857538343 11.7394968403
181 11 1 27.4572540531 17.0983907027 21.2913893051
182 11 1 23.7417001772 13.1854434139 20.1867908091
183 11 2 27.3834319153 17.364135163 21.7723372497
184 11 2 27.0250600462 17.8852846664 22.5925025194
185 11 2 26.4050514701 18.3846530823 23.2550120075
186 11 2 25.5742331823 18.8025409036 23.7108727456
187 11 2 24.6026460379 19.0866750205 23.9299263821
188 11 2 23.5731610085 19.1969730566 23.9035979093
189 11 2 22.5739260606 19.1091966023 23.6456772161
190 11 2 21.6903320732 18.8171603796 23.1910622347
191 11 2 20.9972300448 18.3332959883 22.5925782332
192 11 2 20.5521089378 17.6875188503 21.9161631541
193 11 2 20.3898559537 16.9245016244 21.2348578237
194 11 2 20.519576804 16.0996025997 20.622148781
195 11 2 20.923765787 15.2738201666 20.1452704837
196 11 2 21.5599013126 14.5082332327 19.8590773485
197 11 2 22.3643214535 13.858434298 19.8010441466
198 11 2 23.2580262934 13.3694625805 19.9878504358
199 12 1 16.8505555542 11.0082426692 12.895410998
200 12 1 13.312064985 6.91885056672 13.9406820877
201 12 2 16.6361776457 11.5186320612 12.925833565
202 12 2 16.0699381737 12.3818142403 12.8422413579
203 12 2 15.324478648 13.057354359 12.5960018106
204 12 2 14.455967978 13.4820172315 12.2244524438
205 12 2 13.5317903413 13.6154334126 11.7763519088
206 12 2 12.6244035777 13.4437785966 11.3074359713
207 12 2 11.8047351542 12.9810336073 10.875337578
208 12 2 11.1357176124 12.2677101423 10.5343340091
209 12 2 10.6665526989 11.3671584089 10.3303998759
210 12 2 10.4282269636 10.3597931879 10.2970168505
211 12 2 10.4306875479 9.33576457669 10.4521220409
212 12 2 10.6619355708 8.38674142676 10.7964731464
213 12 2 11.0891197451 7.59755635592 11.3135793988
214 12 2 11.6615305468 7.03847383694 11.9712045824
215 12 2 12.3152220404 6.75878607262 12.7243051447
216 12 2 12.9788401125 6.78232034942 13.5191356067
217 13 1 6.92049631322 2.95355672942 30.3875206511
218 13 1 5.79404483024 7.9927963363 28.4708031007
219 13 2 7.42776892592 2.89135061792 30.6024291147
220 13 2 8.44396586277 2.87412252719 30.8017912213
221 13 2 9.46948168905 3.00055045458 30.7308578701
222 13 2 10.4132989057 3.27576641708 30.4050304517
223 13 2 11.1918462818 3.6913414224 29.8629422031
224 13 2 11.7366157994 4.22605371378 29.1629370537
225 13 2 12.0004066892 4.8478229877 28.3777519751
226 13 2 11.9616274579 5.5166342935 27.5878875061
227 13 2 11.6262638039 6.1881851219 26.8742706792
228 13 2 11.0273330624 6.81792327485 26.3108790777
229 13 2 10.2218749017 7.36510749306 25.9579982851
230 13 2 9.28575254828 7.79652074235 25.8567272681
231 13 2 8.30673837399 8.08949771863 26.0252324876
232 13 2 7.37651404604 8.23399063497 26.4570921499
233 13 2 6.58231437169 8.23348500847 27.1218815095
234 13 2 5.9989764436 8.10468197929 27.9679458761
235 14 1 11.5712899271 8.32097170861 20.4440339943
236 14 1 8.31713075252 3.96107184084 21.3033105135
237 14 2 11.3643960515 8.8063736816 20.6142121377
238 14 2 10.7887198861 9.64477074767 20.8101345287
239 14 2 10.0068403598 10.3230619401 20.8459637878
240 14 2 9.08132454876 10.7744216566 20.7346392135
241 14 2 8.08783099161 10.9527075433 20.5025121673
242 14 2 7.10821393254 10.8366660536 20.1869443278
243 14 2 6.22306286806 10.4318695632 19.8329024298
244 14 2 5.50435736697 9.77020848646 19.4888598549
245 14 2 5.0089066261 8.90698468381 19.2023786147
246 14 2 4.77317170156 7.91587107606 19.0157743999
247 14 2 4.80994233344 6.88219686297 18.9622597952
248 14 2 5.10717124869 5.89517035169 19.0629171798
249 14 2 5.62907218745 5.03974823117 19.3247772129
250 14 2 6.31938157531 4.38889235242 19.7401780376
251 14 2 7.10648656234 3.99691975607 20.2874636068
252 14 2 7.90995204339 3.89455204645 20.9329574827
253 15 1 12.5202563856 27.5600284322 5.17387320131
254 15 1 11.7210924674 27.7717421596 10.6193437279
255 15 2 12.364264517 28.0132361522 4.89521561373
256 15 2 11.8725513446 28.8321708936 4.49488785258
257 15 2 11.1652216721 29.5611758338 4.29256434252
258 15 2 10.3119697587 30.1476720026 4.31867348656
259 15 2 9.3957896756 30.5520691276 4.58282361739
260 15 2 8.5054109649 30.7513740156 5.07292726382
261 15 2 7.72721155071 30.7412862247 5.75630284088
262 15 2 7.13734498332 30.53659002 6.58265335219
263 15 2 6.79479956526 30.1698068894 7.48865061639
264 15 2 6.73602197197 29.6882314326 8.40370719665
265 15 2 6.9715953872 29.1496207831 9.25640996159
266 15 2 7.48527491836 28.6169304409 9.98102890259
267 15 2 8.23546820715 28.1525763107 10.5235079734
268 15 2 9.15902628779 27.81274592 10.8463919283
269 15 2 10.1769991824 27.6422773111 10.9322401106
270 15 2 11.20183165 27.6705723613 10.7852160493
271 16 1 21.9700916797 10.9016059691 13.0451960464
272 16 1 17.2026300695 8.63776086352 14.6209339879
273 16 2 22.0423065662 11.4293671875 13.1989291209
274 16 2 21.9631668433 12.443703634 13.3927247572
275 16 2 21.6066237618 13.4134437897 13.4646923375
276 16 2 20.9975103276 14.2501997313 13.4257232536
277 16 2 20.1836796026 14.8777041351 13.2968200137
278 16 2 19.231643226 15.2387615202 13.1071820075
279 16 2 18.2205093347 15.3004612247 12.8915441825
280 16 2 17.2347723991 15.057176987 12.6870111913
281 16 2 16.3566121309 14.5310797407 12.5296755571
282 16 2 15.6584033662 13.7701168861 12.4513280874
283 16 2 15.1961195955 12.8436422136 12.4765603604
284 16 2 15.0042313634 11.8360947809 12.6205233706
285 16 2 15.0925645151 10.8393028719 12.8875466199
286 16 2 15.445404638 9.94411447853 13.2707435133
287 16 2 16.0229293224 9.23211712855 13.7526390244
288 16 2 16.7648377013 8.76820174227 14.3067624247
289 17 1 8.26896867249 6.54154183378 8.00102602724
290 17 1 5.47829198223 3.19646364755 11.3713688088
291 17 2 8.24077952192 7.08052276962 8.12785533865
292 17 2 7.9566363808 8.04607651585 8.37212344867
293 17 2 7.39596287953 8.88018073897 8.62235062749
294 17 2 6.61050807134 9.50631362597 8.87477214638
295 17 2 5.67250828448 9.86690852524 9.12542327758
296 17 2 4.66810327615 9.9286007522 9.37050065201
297 17 2 3.68948518418 9.68526855155 9.60670891031
298 17 2 2.8264958458 9.15859105328 9.83156105225
299 17 2 2.15843833008 8.39607236861 10.0436051098
300 17 2 1.74684900696 7.46671191597 10.2425564838
301 17 2 1.62988892898 6.45471559703 10.4293238838
302 17 2 1.818865713 5.45182100611 10.6059265047
303 17 2 2.29720292844 4.54893617745 10.7753099914
304 17 2 3.02195092528 3.82785394112 10.9410779636
305 17 2 3.92770140021 3.35379706736 11.1071635702
306 17 2 4.932548915 3.16947365824 11.2774710097
307 18 1 11.6855894799 10.3837609875 24.588841647
308 18 1 10.0741734261 6.9209934612 28.5573696218
309 18 2 11.5661176442 10.9175422092 24.67931175
310 18 2 11.1272991253 11.8313091021 24.8918362051
311 18 2 10.4470069502 12.564976383 25.159479902
312 18 2 9.59039190059 13.05319043 25.4765855188
313 18 2 8.6386753792 13.2529690002 25.8329876187
314 18 2 7.68174663601 13.1476187673 26.2149391601
315 18 2 6.80996997924 12.7482568032 26.6063644448
316 18 2 6.10594868827 12.0927973334 26.9903243077
317 18 2 5.636996291 11.2424961151 27.350560006
318 18 2 5.44900139734 10.2763673951 27.6729750918
319 18 2 5.56224526703 9.28398230295 27.9469202065
320 18 2 5.96955331185 8.35730505632 28.1661636974
321 18 2 6.63694901015 7.58231105335 28.3294595894
322 18 2 7.50675063385 7.03115080449 28.4406611477
323 18 2 8.50282854249 6.75557390811 28.5083696789
324 18 2 9.537543878 6.78221242942 28.5451505805
325 19 1 11.0256712052 7.84405138322 9.33154808971
326 19 1 14.4784814516 3.65033298541 10.2411976537
327 19 2 11.0078663041 8.2257517844 9.73325512335
328 19 2 10.9449273331 8.75174963494 10.6232344592
329 19 2 10.8640325987 8.99398422667 11.6269658553
330 19 2 10.7908616229 8.93131194642 12.6581867166
331 19 2 10.7503899603 8.57037935195 13.6281289715
332 19 2 10.7646128472 7.94501738376 14.4536096735
333 19 2 10.8505404867 7.11315790678 15.064612556
334 19 2 11.0186476852 6.15155361812 15.4106695353
335 19 2 11.271919146 5.14878256493 15.4654605302
336 19 2 11.6055774336 4.1971748627 15.2292123571
337 19 2 12.0075184043 3.38439743825 14.7286780571
338 19 2 12.4594144162 2.78546379044 14.0146985399
339 19 2 12.9383847677 2.455897024 13.1575687831
340 19 2 13.419081117 2.42666929925 12.2406309275
341 19 2 13.8759978092 2.701378932 11.3526782119
342 19 2 14.2857965421 3.25592243176 10.5798620783
343 20 1 31.2192468282 19.5644486864 15.8198338738
344 20 1 25.9875120256 18.1524046965 14.8340764732
345 20 2 31.397517784 19.4627803184 16.3348715044
346 20 2 31.5337516554 19.3860377559 17.358711913
347 20 2 31.3969753705 19.4480328015 18.3834787808
348 20 2 30.9912012596 19.6264541598 19.3195404566
349 20 2 30.344958961 19.8883790755 20.0853501595
350 20 2 29.5086951392 20.1932740163 20.6148784086
351 20 2 28.550175618 20.4966890267 20.8636311576
352 20 2 27.5483089901 20.754309037 20.8127051218
353 20 2 26.5859546393 20.9259928774 20.4705106834
354 20 2 25.7423706769 20.9794318711 19.8720053423
355 20 2 25.085990107 20.8930945483 19.07550758
356 20 2 24.6681836283 20.658189092 18.1573815298
357 20 2 24.5185775468 20.2794646521 17.2050769094
358 20 2 24.6423535409 19.7747784928 16.3091585789
359 20 2 25.0197763873 19.1734684254 15.5550521746
360 20 2 25.607992691 18.513678868 15.0152581481
361 21 1 11.9134473956 9.5359242616 25.5973999468
362 21 1 7.05554973052 8.87070385306 28.1063732449
363 21 2 12.3414067396 9.63541935636 25.9355305098
364 21 2 12.9978106262 9.98549796479 26.6561394028
365 21 2 13.4127997762 10.5105878243 27.4465588584
366 21 2 13.5445381036 11.1514200019 28.2494769143
367 21 2 13.3770058928 11.8381764458 29.0064424459
368 21 2 12.9214598861 12.4968534224 29.6631925867
369 21 2 12.2154073086 13.0560064488 30.1745984156
370 21 2 11.3191873415 13.453261968 30.5087781492
371 21 2 10.3104716203 13.6410022705 30.6500029475
372 21 2 9.27718499686 13.5907055228 30.6001304901
373 21 2 8.30949179234 13.295545336 30.3784356612
374 21 2 7.49157793755 12.7710129454 30.019853776
375 21 2 6.89397800247 12.0535052896 29.5717964666
376 21 2 6.56714645378 11.1970076798 29.0898304363
377 21 2 6.53685907614 10.2681734086 28.6326129361
378 21 2 6.80186368619 9.34024875927 28.256545558
379 22 1 29.428510399 27.7163491647 9.14368385359
380 22 1 27.0649303554 24.1634836051 12.6261069496
381 22 2 29.4123572439 28.2474005324 9.30212713079
382 22 2 29.1533302447 29.1951323209 9.62985833444
383 22 2 28.6210257207 30.0080940708 9.98824828683
384 22 2 27.86681194 30.6106792315 10.363416207
385 22 2 26.9622826781 30.9464556359 10.7399521173
386 22 2 25.992731936 30.9833089059 11.102321357
387 22 2 25.0493799766 30.7163694577 11.4362804606
388 22 2 24.2210592237 30.1684563308 11.7301753513
389 22 2 23.5861177952 29.3879973892 11.976003531
390 22 2 23.2052786092 28.4446154536 12.1701434525
391 22 2 23.1161049069 27.4227826585 12.3136845991
392 22 2 23.3295766201 26.4141213964 12.4123281854
393 22 2 23.8290896259 25.5090535649 12.4758675309
394 22 2 24.571969099 24.7885592306 12.5172954659
395 22 2 25.4933590289 24.3167958514 12.5516201243
396 22 2 26.5121334009 24.1352507637 12.5944970548
397 23 1 28.6833549009 2.74808611772 29.8791854964
398 23 1 23.3434000917 2.56301582512 31.2160723835
399 23 2 28.8989868482 3.25742267479 29.8409770342
400 23 2 29.1146721983 4.24878971867 29.6327236185
401 23 2 29.0632787855 5.2197789717 29.2760208589
402 23 2 28.7407970687 6.09083100692 28.8177936605
403 23 2 28.1679253472 6.79149498962 28.3142201851
404 23 2 27.3881832526 7.26684978789 27.8256115966
405 23 2 26.4639452326 7.48250965721 27.4109151121
406 23 2 25.4707555478 7.42775826535 27.1223413674
407 23 2 24.4904429303 7.11652541257 27.0006057749
408 23 2 23.6036624559 6.58611742584 27.0712175937
409 23 2 22.8825443868 5.89381694286 27.3421549346
410 23 2 22.3841199926 5.11166199247 27.803137611
411 23 2 22.1451235415 4.31988022211 28.4265641068
412 23 2 22.1786442231 3.5995766979 29.1700272652
413 23 2 22.4729331589 3.02534173385 29.980179411
414 23 2 22.9924742319 2.6584524962 30.7975946249
415 24 1 2.40138289801 2.2531903773 13.46404372
416 24 1 2.86691118117 6.36734962133 17.0963449271
417 24 2 2.77409038581 1.84654973052 13.5198403558
418 24 2 3.62437268637 1.26471995336 13.6256344522
419 24 2 4.60713925091 0.958826436772 13.740948403
420 24 2 5.63423327685 0.955415478756 13.874231929
421 24 2 6.61345781747 1.25346416597 14.0322969479
422 24 2 7.45697890139 1.82447360525 14.2196967139
423 24 2 8.08933099695 2.61506640232 14.4383108204
424 24 2 8.45429517795 3.55185164533 14.6871738875
425 24 2 8.52002309339 4.54811398329 14.9625635499
426 24 2 8.28193972625 5.51171713581 15.2583397252
427 24 2 7.76316037499 6.3535014833 15.5665042399
428 24 2 7.01238385251 6.99541035508 15.8779298084
429 24 2 6.09945392329 7.37760435969 16.1831919224
430 24 2 5.10899352309 7.46391533519 16.4734278303
431 24 2 4.13269195853 7.24514282915 16.741144316
432 24 2 3.26094805545 6.73989265677 16.9809006545
433 25 1 23.317218111 10.8316527308 28.407768786
434 25 1 20.2633763565 9.2779033272 32.720140321
435 25 2 23.3370269586 11.378409938 28.318075322
436 25 2 23.1398655983 12.3838232517 28.1665176176
437 25 2 22.6557668643 13.2935495155 28.062860433
438 25 2 21.9295610701 14.0314590253 28.0343477902
439 25 2 21.0281449276 14.5370819965 28.1013748014
440 25 2 20.0343843709 14.7711199695 28.2756287947
441 25 2 19.0395618941 14.7190275955 28.5590240935
442 25 2 18.1350567783 14.3923383451 28.9435275398
443 25 2 17.4040164962 13.8276133114 29.411890661
444 25 2 16.9137783902 13.0831089173 29.9392217502
445 25 2 16.7097323353 12.2334672417 30.4952545744
446 25 2 16.8111837634 11.3629129058 31.0471069344
447 25 2 17.2095941051 10.5575765767 31.5622776514
448 25 2 17.8693590222 9.89764474699 32.0116088271
449 25 2 18.7310534987 9.45005128624 32.3719433858
450 25 2 19.7168480237 9.26237687747 32.6282356834
451 26 1 7.97557584418 30.0034661264 11.1249034413
452 26 1 8.71159056248 30.4389060255 16.5659795624
453 26 2 7.82747945616 29.4997121511 10.9469142736
454 26 2 7.73423721413 28.4883822777 10.743896928
455 26 2 7.87609515509 27.4624577923 10.7365794264
456 26 2 8.22826819224 26.5098219018 10.9394520051
457 26 2 8.74680245974 25.7116780605 11.3478475157
458 26 2 9.37258140615 25.1351488313 11.9383668035
459 26 2 10.0367138629 24.827158125 12.6710113802
460 26 2 10.6668130018 24.8101544067 13.492829012
461 26 2 11.1935938983 25.080064673 14.3427399522
462 26 2 11.5571883774 25.6066656777 15.1571039419
463 26 2 11.7126015869 26.3363385737 15.875520583
464 26 2 11.6338129705 27.1969559034 16.4463344203
465 26 2 11.3161478621 28.1044555217 16.8313429822
466 26 2 10.7767035505 28.9705022845 17.0092786742
467 26 2 10.0527909781 29.710539191 16.977747174
468 26 2 9.19853410448 30.2514941752 16.7534456578
469 27 1 11.9045887694 20.9626386258 23.24756638
470 27 1 12.0422964521 25.7514914205 20.5301116091
471 27 2 11.5055681995 20.6125368712 23.0875910762
472 27 2 10.621467705 20.1466372506 22.8155577507
473 27 2 9.62857063495 19.9640988111 22.5841848967
474 27 2 8.61726595842 20.0842256118 22.395689077
475 27 2 7.67962037146 20.4987358505 22.2483789065
476 27 2 6.90098704915 21.1725166928 22.1368092106
477 27 2 6.35222628887 22.0468245664 22.0522773155
478 27 2 6.08324707998 23.0446392348 21.9836162372
479 27 2 6.11845824166 24.0776836643 21.9182124757
480 27 2 6.45454372636 25.0544698695 21.8431556487
481 27 2 7.06076485483 25.8886374169 21.7464151848
482 27 2 7.88176193596 26.5068245856 21.6179368273
483 27 2 8.84259992307 26.8553547854 21.450559011
484 27 2 9.85559822969 26.9051288103 21.2406655896
485 27 2 10.8283222138 26.6542770309 20.9885154228
486 27 2 11.6720079618 26.1283297992 20.698218783
487 28 1 17.3855236115 23.9658627355 1.78522702941
488 28 1 13.3398060322 22.4319022676 5.19341855546
489 28 2 17.4561267153 24.5134701568 1.73500685964
490 28 2 17.3559288569 25.5358029568 1.60274081594
491 28 2 16.9605530752 26.4802166885 1.44634719145
492 28 2 16.3030138395 27.2665482085 1.29794515237
493 28 2 15.4402200203 27.8290424833 1.18892548665
494 28 2 14.4477880363 28.1223457095 1.14708954895
495 28 2 13.413149936 28.1256390023 1.19411535771
496 28 2 12.427584566 27.844535894 1.34358179246
497 28 2 11.5778981302 27.3105706988 1.59973097199
498 28 2 10.9385123989 26.5783243767 1.95708161434
499 28 2 10.5646816754 25.720449853 2.40092861805
500 28 2 10.4874567445 24.821050202 2.90868333136
501 28 2 10.7108548064 23.9680132288 3.45193235296
502 28 2 11.2114933371 23.2450010985 3.99902721864
503 28 2 11.9407212442 22.7238251028 4.51796894193
504 28 2 12.829053081 22.4579005539 4.97932450221
505 29 1 30.8299104283 22.9564756742 31.9639077615
506 29 1 28.5588690998 17.9402878728 31.8340380133
507 29 2 30.4951814291 23.3619960164 32.1396646983
508 29 2 29.7216122391 24.0295231538 32.3090651118
509 29 2 28.809916845 24.5194598195 32.2707005047
510 29 2 27.8335296546 24.7783988137 32.0419715759
511 29 2 26.8717812895 24.7739867905 31.6576294272
512 29 2 26.0026681424 24.497873044 31.1666082386
513 29 2 25.2957435415 23.9664706172 30.6275652529
514 29 2 24.8057784405 23.2194603663 30.1035345706
515 29 2 24.5677694225 22.3161743223 29.6561820238
516 29 2 24.593749001 21.3301879834 29.340184758
517 29 2 24.8716889388 20.3426144125 29.1982477856
518 29 2 25.3665965395 19.4347113379 29.2572117167
519 29 2 26.0237039916 18.6804750686 29.5256064212
520 29 2 26.7734600795 18.1398962375 29.99287359
521 29 2 27.5378692995 17.8534920671 30.6303290526
522 29 2 28.2376006153 17.8386135022 31.3937771419
523 30 1 4.24030827943 29.4379642726 9.76337728746
524 30 1 3.72320709578 24.4143971879 11.961789223
525 30 2 4.6766189326 29.504345429 9.42780716417
526 30 2 5.61038213743 29.533771546 8.9806845277
527 30 2 6.62334256288 29.424171814 8.79468090866
528 30 2 7.62363284548 29.1687748017 8.87768685868
529 30 2 8.52054041838 28.7740975004 9.21307455155
530 30 2 9.23277533994 28.2593513446 9.76121329556
531 30 2 9.69587931453 27.6546912218 10.4630815993
532 30 2 9.8681006243 26.9984670614 11.245646576
533 30 2 9.73419951194 26.3337285008 12.0285203904
534 30 2 9.30683718014 25.704301207 12.7312870589
535 30 2 8.62542180972 25.150792467 13.2808318148
536 30 2 7.75251677416 24.706890112 13.6180050184
537 30 2 6.76813841706 24.3962921029 13.703013241
538 30 2 5.76246311098 24.2305466233 13.5190461629
539 30 2 4.82760829939 24.2079995419 13.073808719
540 30 2 4.04923662322 24.3139451751 12.3988188468
541 31 1 24.4636165595 22.7370447955 16.2126095645
542 31 1 22.2986519501 25.2252675669 20.6237670778
543 31 2 24.8550430529 23.026588691 15.9474108005
544 31 2 25.4262089895 23.7397294332 15.4596628884
545 31 2 25.7520316129 24.6255740948 15.0332626953
546 31 2 25.8121304072 25.6114542899 14.7216112121
547 31 2 25.6103437616 26.6155840794 14.5676508712
548 31 2 25.1743791277 27.554514199 14.5999516389
549 31 2 24.5532876751 28.3507378872 14.830107058
550 31 2 23.8129936136 28.9397550952 15.2516775768
551 31 2 23.0302856538 29.2759512245 15.8407774694
552 31 2 22.2858182422 29.3367545843 16.558251856
553 31 2 21.6567604613 29.1246936467 17.353245402
554 31 2 21.2097625974 28.6671665939 18.1678374328
555 31 2 20.9948814232 28.0139441613 18.9423210064
556 31 2 21.041017867 27.2326333766 19.6206447914
557 31 2 21.3532828904 26.4025156425 20.1555217621
558 31 2 21.9125316597 25.6073207807 20.5127390865
559 32 1 16.0865693676 18.7959697184 17.7605870701
560 32 1 20.4821205616 15.4774617909 17.7034052318
561 32 2 16.1248720294 19.2316122959 18.1013644202
562 32 2 16.2595694011 19.8825941336 18.8955794642
563 32 2 16.4806743622 20.2745385568 19.8284194486
564 32 2 16.7863145337 20.376674462 20.8127215432
565 32 2 17.166912732 20.1846448052 21.7566324995
566 32 2 17.606059863 19.7209037164 22.5719804442
567 32 2 18.0820104992 19.03266996 23.1823111411
568 32 2 18.5696648257 18.1876232678 23.5298562705
569 32 2 19.0428563163 17.2677357954 23.5807986154
570 32 2 19.4767366334 16.3618009227 23.3283542693
571 32 2 19.8500403833 15.5573403456 22.7933909422
572 32 2 20.1470233111 14.9326270737 22.0225260127
573 32 2 20.3588972813 14.5495513821 21.0838776726
574 32 2 20.4846312568 14.4479799372 20.0608564215
575 32 2 20.53104527 14.6421222234 19.0445627715
576 32 2 20.5121888244 15.1192354456 18.1254840596
577 33 1 5.23662391378 21.386082658 10.2275007418
578 33 1 9.3300500593 17.7260429884 9.79784164945
579 33 2 5.29270023022 21.7549759504 10.6375665135
580 33 2 5.43757600074 22.2526207463 11.5342598498
581 33 2 5.638590638 22.4652126024 12.5277869453
582 33 2 5.89614916439 22.3768838312 13.5270666382
583 33 2 6.20550301451 21.9991935971 14.4404934572
584 33 2 6.5571828343 21.3700743781 15.1842868316
585 33 2 6.93786154778 20.5503746802 15.6901271161
586 33 2 7.33156902858 19.6183131135 15.9113824584
587 33 2 7.72114766757 18.662349302 15.8273589722
588 33 2 8.08981617122 17.7731213955 15.4451868437
589 33 2 8.42269906146 17.0351850236 14.7991704635
590 33 2 8.70818247355 16.5193066297 13.9476618169
591 33 2 8.93897268021 16.2760135952 12.9677421003
592 33 2 9.11276086484 16.3309890146 11.9481962989
593 33 2 9.23243355434 16.6827308579 10.9814210436
594 33 2 9.30580953198 17.3026888702 10.1550032921