LAMMPS input file for bananas

4320 atoms

2 atom types

0 80.0 xlo xhi
0 80.0 ylo yhi
0 80.0 zlo zhi

Masses

 1 1
 2 1

Atoms

1 1 1 56.6124605295 4.42261704461 6.57718241235
2 1 1 58.3923610365 7.26637844978 10.9661420063
3 1 2 56.1927690997 4.65737308161 6.30126522386
4 1 2 55.3115891532 5.1111307479 5.99947739544
5 1 2 54.3795712589 5.56367092206 5.99969313943
6 1 2 53.4863579338 5.9923571845 6.30275758041
7 1 2 52.7180547622 6.37672733591 6.88191199372
8 1 2 52.1493821019 6.70035847207 7.6852327916
9 1 2 51.836864523 6.95236388765 8.64036421951
10 1 2 51.8136787447 7.12838537031 9.66111338973
11 1 2 52.0866296657 7.23099044013 10.6553065327
12 1 2 52.6355301163 7.26943832696 11.5331903898
13 1 2 53.4150408645 7.25883601643 12.2156129829
14 1 2 54.3588031663 7.21876128855 12.6412381056
15 1 2 55.3854871873 7.1714782554 12.7721359548
16 1 2 56.4062050003 7.13990804682 12.5972403305
17 1 2 57.3326124818 7.14553961068 12.1333572903
18 1 2 58.084961643 7.20647105274 11.4236333227
19 2 1 26.7508741928 57.8327582782 7.05003125658
20 2 1 22.0167920746 56.945171691 9.75533116781
21 2 2 26.7529161164 58.2809254941 6.72365177631
22 2 2 26.5562490892 59.0266357319 6.03177871504
23 2 2 26.107107781 59.6041099115 5.29812643473
24 2 2 25.4363442113 59.9732381693 4.60007874729
25 2 2 24.5950106762 60.1129008157 4.01177420112
26 2 2 23.6497064683 60.0228933382 3.59734855062
27 2 2 22.6765075293 59.7239450422 3.4050889536
28 2 2 21.754032331 59.2558296303 3.46303272588
29 2 2 20.9562760117 58.6737399356 3.77641181491
30 2 2 20.3458659173 58.0432572423 4.32717592173
31 2 2 19.9683532861 57.4343737273 5.07563773748
32 2 2 19.848061375 56.91511286 5.96409033555
33 2 2 19.9858684598 56.5453292451 6.92206700366
34 2 2 20.3591277828 56.371253035 7.87276409638
35 2 2 20.9237317438 56.4212761756 8.74004148212
36 2 2 21.6181321904 56.7033645556 9.45536251263
37 3 1 71.7302363682 67.9838323246 32.2878593599
38 3 1 67.1182592666 70.2399318791 30.2488220684
39 3 2 71.8464086257 68.1229077871 32.8118284529
40 3 2 72.0302105879 68.6018597374 33.7119794842
41 3 2 72.1413669806 69.3263974627 34.444194857
42 3 2 72.152251051 70.2307337318 34.9496723151
43 3 2 72.0443756 71.2326931568 35.1902761571
44 3 2 71.8100780418 72.2412022603 35.1520132039
45 3 2 71.4532188277 73.164590579 34.8463082392
46 3 2 70.9888295762 73.9189461816 34.3089626716
47 3 2 70.4417429816 74.4357640174 33.5968913312
48 3 2 69.8443293797 74.6681899677 32.7829348354
49 3 2 69.2335462786 74.5952914747 31.9492203613
50 3 2 68.6475697807 74.2239654871 31.1796759728
51 3 2 68.1223149325 73.5883098222 30.552380802
52 3 2 67.6881621647 72.7465152409 30.132448345
53 3 2 67.3671881967 71.7755615156 29.9660915409
54 3 2 67.1711538029 70.7642009291 30.0764105857
55 4 1 59.3321896646 7.27307303132 36.1312839403
56 4 1 62.850302052 3.77649472949 33.6992443702
57 4 2 59.5662229979 7.63511410037 36.4799044379
58 4 2 60.1042528336 8.11905543138 37.2213723705
59 4 2 60.7433352305 8.31813669198 38.0121886278
60 4 2 61.4415752716 8.21842783343 38.7711148428
61 4 2 62.1516859787 7.83323272772 39.4198193405
62 4 2 62.8252983942 7.20187655526 39.8900168611
63 4 2 63.4173702823 6.38612141975 40.1296925783
64 4 2 63.8902916081 5.46453689753 40.1078431125
65 4 2 64.2173125923 4.52533863068 39.8173024051
66 4 2 64.3849818814 3.65834770699 39.2753948864
67 4 2 64.3943726035 2.94680370797 38.5223563993
68 4 2 64.2609845545 2.45977764339 37.6176668106
69 4 2 64.0133314341 2.24587631336 36.6346285793
70 4 2 63.6903418976 2.32881192848 35.6536854341
71 4 2 63.3378113133 2.70524080515 34.7550901419
72 4 2 63.0042276372 3.3450681334 34.011589683
73 5 1 21.6738597798 45.0753550024 54.4769221548
74 5 1 19.214614916 40.9962459879 51.6785341529
75 5 2 21.4101735075 45.234384868 54.937965146
76 5 2 20.7309730934 45.5437316653 55.6566036975
77 5 2 19.8593495032 45.8298468949 56.1381225481
78 5 2 18.8683634878 46.0498658978 56.3454589098
79 5 2 17.8419553642 46.1669485089 56.2665409956
80 5 2 16.8672940799 46.1536369404 55.9153883306
81 5 2 16.0268319961 45.9943584854 55.3308339099
82 5 2 15.3907895759 45.6868449285 54.5729846748
83 5 2 15.0107549762 45.2423392878 53.7177429256
84 5 2 14.9149819253 44.6845710434 52.8498880302
85 5 2 15.1058144711 44.0475932593 52.0553490109
86 5 2 15.5594733276 43.3726787372 51.4133723439
87 5 2 16.2282232927 42.7045581111 50.9892988547
88 5 2 17.044724185 42.0873427695 50.8286080766
89 5 2 17.9281687208 41.5605042203 50.9527729128
90 5 2 18.7916478821 41.1552763683 51.3573024385
91 6 1 55.1201088364 20.7984296955 51.2219455285
92 6 1 50.3103977309 18.1196498427 51.6789013723
93 6 2 55.2140775789 21.1784040497 51.6145916205
94 6 2 55.1743830372 21.9631234273 52.2899358684
95 6 2 54.8528041664 22.7743082906 52.8485199342
96 6 2 54.2713948407 23.5294155903 53.2550001588
97 6 2 53.4758917855 24.1510135972 53.4878967416
98 6 2 52.5315457978 24.5738395972 53.5415515668
99 6 2 51.5171743096 24.7507484133 53.4266439261
100 6 2 50.5179773904 24.6570095627 53.169217129
101 6 2 49.6177719884 24.2925613738 52.8083047256
102 6 2 48.8913522393 23.682016608 52.3923727021
103 6 2 48.3976721811 22.8724190715 51.9749019362
104 6 2 48.1744722513 21.9289556989 51.6095135579
105 6 2 48.2348393463 20.9290149377 51.3450815266
106 6 2 48.5660139861 19.9551329986 51.2212779005
107 6 2 49.1305533072 19.0874709003 51.2649568348
108 6 2 49.8697438786 18.3965080067 51.4877068967
109 7 1 15.4657619682 14.4121922481 19.1049787704
110 7 1 19.7183552147 11.675996515 21.3290908745
111 7 2 15.1814118615 14.7299133584 19.4593513158
112 7 2 14.6460850925 15.1279722432 20.2520835442
113 7 2 14.1604579476 15.2464806913 21.1595922411
114 7 2 13.7828399444 15.0816750366 22.1102203235
115 7 2 13.5616958561 14.655614936 23.0283804915
116 7 2 13.5312282768 14.0141726911 23.8414448089
117 7 2 13.7082601462 13.2228521101 24.4863645453
118 7 2 14.0907013842 12.3608180111 24.9154168997
119 7 2 14.6577393954 11.5136805601 25.1005548057
120 7 2 15.3717360823 10.7656921339 25.035963347
121 7 2 16.1816584565 10.1920679402 24.7385897716
122 7 2 17.0277301599 9.85213035334 24.2465987952
123 7 2 17.8468799195 9.78390183775 23.6158939893
124 7 2 18.5784903256 10.0006393024 22.9150223203
125 7 2 19.1699229464 10.4896257687 22.2189262767
126 7 2 19.5813161809 11.2133294893 21.6021130614
127 8 1 16.0447357324 57.7809359546 11.780096358
128 8 1 13.5618661557 62.5843631947 12.9116600882
129 8 2 16.5983249793 57.7917637268 11.8084387834
130 8 2 17.60948483 58.0008875674 11.7231569748
131 8 2 18.5116659268 58.4476453074 11.478357462
132 8 2 19.2255423841 59.1028019513 11.1114784807
133 8 2 19.6889517809 59.9181275001 10.671085484
134 8 2 19.8625610993 60.8307929876 10.2124445311
135 8 2 19.7334518241 61.769097172 9.79248493336
136 8 2 19.3162974307 62.6590019131 9.4646103003
137 8 2 18.6520259371 63.4308805504 9.27383094287
138 8 2 17.8040894245 64.0258641874 9.25266130411
139 8 2 16.8526805499 64.401207434 9.41815635452
140 8 2 15.8874231993 64.5341845347 9.7703570771
141 8 2 14.9992035104 64.4241607605 10.2922867318
142 8 2 14.2718858439 64.0926502625 10.9514982403
143 8 2 13.7746687711 63.5813551147 11.7030316497
144 8 2 13.5557778095 62.9483642815 12.4935121132
145 9 1 37.9966847816 23.8651690027 35.7552483038
146 9 1 41.2422386006 20.1883497206 38.2979577714
147 9 2 37.7910102926 24.2616879744 36.0836570395
148 9 2 37.3438235361 24.820747862 36.8326070098
149 9 2 36.8636506697 25.102152613 37.7065036832
150 9 2 36.4091140323 25.0837413151 38.6373675188
151 9 2 36.0364992888 24.7706804876 39.5520265714
152 9 2 35.7946251428 24.194993167 40.3787859182
153 9 2 35.7203936415 23.4126400926 41.0539624598
154 9 2 35.8354266534 22.4984190348 41.5276894644
155 9 2 36.1440950922 21.5391471783 41.7684617868
156 9 2 36.6331205204 20.6257479675 41.7660074788
157 9 2 37.2727854425 19.8449636781 41.5322240492
158 9 2 38.019641976 19.2714490898 41.1000940381
159 9 2 38.8204720095 18.9609669032 40.5206787463
160 9 2 39.6171378914 18.9453051185 39.8584641343
161 9 2 40.3518815212 19.2293796443 39.1854830993
162 9 2 40.9725888463 19.7907862256 38.5747498693
163 10 1 39.1586048165 66.5602147645 40.5311633687
164 10 1 43.083611985 63.4232331463 42.8271721048
165 10 2 38.6405789975 66.4356423558 40.6845014066
166 10 2 37.7369006561 65.9838735361 40.9141106398
167 10 2 36.9911503571 65.2811149694 41.0672017881
168 10 2 36.4736442174 64.3872243175 41.1484231463
169 10 2 36.2338945088 63.3794804209 41.1689737482
170 10 2 36.2960967466 62.345539539 41.145582605
171 10 2 36.6569243334 61.3754457165 41.0989839006
172 10 2 37.2858317695 60.5534235091 41.0520271258
173 10 2 38.1278387931 59.9502011408 41.0275944089
174 10 2 39.1085416849 59.6165638148 41.0465148702
175 10 2 40.1408949678 59.5787247784 41.125666104
176 10 2 41.1331453696 59.8359360554 41.2764358304
177 10 2 41.9971948884 60.360556622 41.5036839355
178 10 2 42.6566306904 61.1005718126 41.8052995055
179 10 2 43.0536899349 61.984334317 42.1723932309
180 10 2 43.1545247035 62.9270946419 42.5901076435
181 11 1 38.5918472609 71.8471928709 14.2738150239
182 11 1 36.3017952757 67.3776687908 16.5753378815
183 11 2 38.5161267487 72.319256105 14.5545360511
184 11 2 38.1489531518 73.1350484577 15.0771414454
185 11 2 37.5201726369 73.7943098346 15.5705576108
186 11 2 36.6886506417 74.2309616002 16.0080006566
187 11 2 35.7317319479 74.3992153903 16.3677884923
188 11 2 34.738190911 74.2777465986 16.6353170922
189 11 2 33.8001399152 73.871638058 16.8043916133
190 11 2 33.0046335758 73.2119167535 16.8777910389
191 11 2 32.4257339438 72.3527257959 16.8670148814
192 11 2 32.1177599476 71.3663894215 16.7912350328
193 11 2 32.110336368 70.3368208318 16.6755482975
194 11 2 32.4056936186 69.3518737289 16.5486888863
195 11 2 32.9784644499 68.4953346859 16.4404093692
196 11 2 33.7779961055 67.8392862242 16.3787688089
197 11 2 34.7329671864 67.4375366847 16.3875752516
198 11 2 35.7578884051 67.3207157412 16.4842156874
199 12 1 63.3557400732 8.32828317442 66.1874585636
200 12 1 59.3850639752 4.66262121709 67.3340381732
201 12 2 63.8344468742 8.24531291137 66.4545490392
202 12 2 64.5903452461 8.07915361713 67.143358702
203 12 2 65.1069544608 7.89577171971 68.0225264961
204 12 2 65.3384567581 7.6927113924 69.0117803568
205 12 2 65.2650211115 7.46931044476 70.0208141687
206 12 2 64.8946107729 7.22676067954 70.9575189267
207 12 2 64.2622574435 6.96799926304 71.7363782255
208 12 2 63.4268682284 6.69744101023 72.2862628517
209 12 2 62.4658564105 6.42057598618 72.5569140213
210 12 2 61.4680854377 6.14346910131 72.5235243335
211 12 2 60.5257692562 5.87220731101 72.1889988989
212 12 2 59.7260672564 5.61234480591 71.5836905468
213 12 2 59.1431399272 5.36839676228 70.7626332454
214 12 2 58.8313893256 5.14342779573 69.8005259034
215 12 2 58.8205004748 4.93877262976 68.7849237632
216 12 2 59.1127356534 4.75391443922 67.8082579754
217 13 1 23.4005023489 24.7479333365 50.2717640089
218 13 1 19.5995703598 20.8595582833 51.2471852107
219 13 2 23.5380985361 25.0557065771 50.7119054745
220 13 2 23.5623357125 25.6559203627 51.5560654013
221 13 2 23.2827579072 26.2294134323 52.3723937427
222 13 2 22.7247060501 26.7108512828 53.1005734817
223 13 2 21.938903237 27.0432899981 53.6883221104
224 13 2 20.9968314543 27.1833665353 54.0961570416
225 13 2 19.9842161875 27.1052511497 54.3009943408
226 13 2 18.993212772 26.8030017072 54.2982527648
227 13 2 18.1140066809 26.291105294 54.1022713303
228 13 2 17.4265933598 25.6031577573 53.7450023505
229 13 2 16.993486856 24.7888015337 53.2730990673
230 13 2 16.8540218302 23.9092008737 52.743663333
231 13 2 17.020768307 23.0314668839 52.2190409291
232 13 2 17.4783859513 22.2225405287 51.7611389147
233 13 2 18.185022298 21.5430911407 51.4257829639
234 13 2 19.0761274935 21.041986573 51.2576290046
235 14 1 74.1898324131 52.0725347714 7.36638990046
236 14 1 71.4964163733 48.5982340254 10.711944477
237 14 2 74.278516571 52.5777698632 7.57675674724
238 14 2 74.2140024218 53.5132861764 8.01732134339
239 14 2 73.8596360378 54.3590953283 8.49948454782
240 14 2 73.2516086874 55.0340492759 8.99767118053
241 14 2 72.449232158 55.4725729715 9.48484556881
242 14 2 71.5295326451 55.6306413529 9.93497577664
243 14 2 70.5802300208 55.4897921104 10.325406346
244 14 2 69.6917424015 55.0588084765 10.6389232814
245 14 2 68.9489447784 54.3729186582 10.8653230595
246 14 2 68.4234328892 53.4905848798 11.0023426529
247 14 2 68.1669974574 52.4881747077 11.0558657993
248 14 2 68.2069036068 51.4530003503 11.0393867144
249 14 2 68.5434057181 50.4753603842 10.9727801299
250 14 2 69.1497242426 49.6403092801 10.8804897654
251 14 2 69.9744865871 49.0199049147 10.7893003484
252 14 2 70.9464095876 48.6666406883 10.7258962577
253 15 1 10.189360978 69.6975950182 40.5790034837
254 15 1 14.350291072 68.2730264428 37.2360622357
255 15 2 10.2704531994 69.5821044831 41.115163512
256 15 2 10.4774755674 69.1528814008 42.03514139
257 15 2 10.7555142314 68.4850019712 42.7768162379
258 15 2 11.0979022016 67.6433518015 43.2746570568
259 15 2 11.4921072207 66.7086552377 43.4853576679
260 15 2 11.9208740461 65.7701175555 43.3917839549
261 15 2 12.3637972188 64.9172941386 43.0045355928
262 15 2 12.7991809666 64.2319277446 42.360979916
263 15 2 13.2060167157 63.7804978706 41.5218459855
264 15 2 13.5658979663 63.6081613256 40.5656892975
265 15 2 13.8646979953 63.7346363074 39.5817316598
266 15 2 14.0938574699 64.1524051418 38.6617288623
267 15 2 14.2511646076 64.8273994985 37.8916073823
268 15 2 14.3409567746 65.7021056284 37.3436324155
269 15 2 14.3737251459 66.700806588 37.0698210967
270 15 2 14.3651584632 67.7364836365 37.0972012771
271 16 1 77.1536142559 9.20592548717 49.6036832481
272 16 1 73.0801367589 5.48521696934 49.8884643373
273 16 2 77.016500805 9.71580243752 49.7728192441
274 16 2 76.5783698556 10.6391895042 49.9426650782
275 16 2 75.930065167 11.447103488 49.9220244209
276 16 2 75.1192193279 12.0621049983 49.7277252222
277 16 2 74.2082801185 12.4243381013 49.3924239441
278 16 2 73.2688185622 12.4969860274 48.9616290112
279 16 2 72.375005418 12.2696269224 48.4895528395
280 16 2 71.5968507143 11.7591837707 48.0341705197
281 16 2 70.9938225216 11.0083819113 47.6519355424
282 16 2 70.6094265971 10.0818547368 47.3926342134
283 16 2 70.467240951 9.0602525325 47.2948477652
284 16 2 70.5687667742 8.03289141877 47.3824357804
285 16 2 70.8932916084 7.08961242507 47.6623614548
286 16 2 71.3997772314 6.31259272036 48.1240569209
287 16 2 72.0306001817 5.76885538379 48.74038648
288 16 2 72.7168039824 5.50416043016 49.4701199495
289 17 1 35.8309250214 74.0987905296 62.0930089007
290 17 1 32.3125577045 74.6825429519 66.3118138966
291 17 2 35.8695227629 74.5391595596 61.7583943167
292 17 2 35.7068760924 75.3475039129 61.1310383744
293 17 2 35.2522064959 76.0843031695 60.5619580421
294 17 2 34.5458985269 76.6969242474 60.1155563407
295 17 2 33.6512729045 77.1440525738 59.8450544617
296 17 2 32.6488149981 77.3994577976 59.7876407979
297 17 2 31.628838802 77.4543846164 59.961081321
298 17 2 30.6832550554 77.3183507984 60.3621002606
299 17 2 29.897193825 77.0182796635 60.9666786815
300 17 2 29.341245126 76.5960460944 61.7322437464
301 17 2 29.0650248319 76.1046597536 62.6015491152
302 17 2 29.0926523194 75.6034333935 63.5078927968
303 17 2 29.4205520521 75.1525766582 64.3811968565
304 17 2 30.0177794811 74.8077081351 65.154394833
305 17 2 30.8288415578 74.6147858691 65.7695446671
306 17 2 31.7787547768 74.6059184102 66.1831099649
307 18 1 7.8068356408 66.4433683912 11.7839592669
308 18 1 10.8848754251 61.959004953 12.7504719163
309 18 2 8.02058452876 66.9186317868 11.9732149291
310 18 2 8.44322102945 67.6854726362 12.5270953414
311 18 2 8.8777675143 68.2315333629 13.2928871189
312 18 2 9.30333221333 68.5046032164 14.1971976591
313 18 2 9.69984202236 68.4773538346 15.1540087448
314 18 2 10.0498721127 68.1498301511 16.0725168742
315 18 2 10.340234158 67.5494462995 16.8654097577
316 18 2 10.5631784143 66.7284868885 17.4568245994
317 18 2 10.7171000895 65.7593413992 17.7892627888
318 18 2 10.8066856148 64.727906078 17.8288307447
319 18 2 10.8424854897 63.725754723 17.5683292251
320 18 2 10.8399526321 62.8417919768 17.0279095187
321 18 2 10.8180338857 62.1541499063 16.2532367086
322 18 2 10.7974430664 61.7230664736 15.3113274224
323 18 2 10.7987729531 61.5853950067 14.2844414454
324 18 2 10.8406183108 61.751245117 13.2625839612
325 19 1 61.3289214757 64.8451321235 26.0268277779
326 19 1 60.9139427741 60.1473048117 28.903666718
327 19 2 61.6026209158 64.8015854179 25.5466466777
328 19 2 62.2770728429 64.6152266745 24.7825556963
329 19 2 63.1036023865 64.2933180504 24.2471364564
330 19 2 64.0010095978 63.8480178762 23.9829053773
331 19 2 64.8816342178 63.3027312922 24.0076608021
332 19 2 65.6593456761 62.6899769328 24.3128607266
333 19 2 66.2573936618 62.04842294 24.86440138
334 19 2 66.6154037092 61.4193624652 25.6057256924
335 19 2 66.6948801695 60.842949909 26.4629783205
336 19 2 66.4827149854 60.3545409551 27.3517373653
337 19 2 65.9923824564 59.9814699939 28.1847092016
338 19 2 65.2627110919 59.7405586662 28.8796850596
339 19 2 64.3543444963 59.6365826154 29.3670341338
340 19 2 63.344213867 59.6618362002 29.5960502452
341 19 2 62.3185259208 59.7968348437 29.5395735739
342 19 2 61.3649053824 60.0120910001 29.1964662041
343 20 1 37.5595776964 79.119313707 62.8648350638
344 20 1 32.5205496787 76.9125450506 63.3711549185
345 20 2 37.8895433232 78.8664424078 62.4980103383
346 20 2 38.4423386003 78.1998654995 61.9292022705
347 20 2 38.8576128286 77.3316949825 61.5454350495
348 20 2 39.0851215333 76.3366605085 61.367681861
349 20 2 39.0917345652 75.3010550399 61.3981382618
350 20 2 38.8644558255 74.3148694767 61.6200220616
351 20 2 38.411607825 73.4635902267 61.9991029741
352 20 2 37.7620731098 72.8204073479 62.4868226163
353 20 2 36.9626616945 72.43954347 63.0247204753
354 20 2 36.0738444542 72.3513115471 63.5497624282
355 20 2 35.1642413659 72.5593519128 64.0000861331
356 20 2 34.3043669813 73.0403004731 64.3206396171
357 20 2 33.5602032134 73.745918282 64.4681991158
358 20 2 32.9871852621 74.6074883915 64.4153088044
359 20 2 32.6251488432 75.5420792185 64.1527833224
360 20 2 32.49469927 76.4601035366 63.6905449948
361 21 1 10.2559346168 65.0018175359 33.5532051287
362 21 1 7.66870727824 63.125755205 38.0592716939
363 21 2 10.0907031948 65.5019655179 33.3801959921
364 21 2 9.56725189083 66.3419137852 33.073706756
365 21 2 8.8053240188 66.999467359 32.8276595519
366 21 2 7.87158076036 67.4238547514 32.681136927
367 21 2 6.84834381039 67.585556949 32.664150029
368 21 2 5.82609197459 67.4789979915 32.7949031703
369 21 2 4.89521426811 67.1230532062 33.0781345537
370 21 2 4.13777119845 66.5593287716 33.5046843976
371 21 2 3.62001516951 65.8483694264 34.0523298259
372 21 2 3.38635175205 65.0641399776 34.6878104236
373 21 2 3.45529223461 64.2872836064 35.3698598349
374 21 2 3.81776636904 63.5977714575 36.052967081
375 21 2 4.43794909935 63.0676134834 36.6915247641
376 21 2 5.25652591985 62.7542949294 37.2439860603
377 21 2 6.19609923378 62.6955367072 37.6766516012
378 21 2 7.16824293741 62.9058572348 37.9667410812
379 22 1 22.7875180266 11.9685377958 31.7087968059
380 22 1 18.5953966505 15.4275522653 32.6984069966
381 22 2 23.0891223307 12.089521701 31.259598268
382 22 2 23.4427104883 12.3250940743 30.3146479608
383 22 2 23.4961880107 12.5702329623 29.309413117
384 22 2 23.2451563642 12.8217898689 28.3361956457
385 22 2 22.7129722124 13.0760313128 27.4843791584
386 22 2 21.9486185179 13.3289791244 26.8322818915
387 22 2 21.0222398768 13.5767730449 26.4400182079
388 22 2 20.018749026 13.8160225792 26.3440193342
389 22 2 19.030087274 14.04411603 26.5537127512
390 22 2 18.146844297 14.2594585474 27.0506629045
391 22 2 17.4500011312 14.4616174948 27.7902515561
392 22 2 17.0035489685 14.6513618827 28.7057446171
393 22 2 16.8486565299 14.8305922759 29.7143747822
394 22 2 16.999917647 15.0021675612 30.7248855476
395 22 2 17.4440210729 15.1696443685 31.6458489982
396 22 2 18.1409637671 15.3369528926 32.393999217
397 23 1 16.6533641422 7.44143953184 41.9241222197
398 23 1 21.7186969581 5.52173569264 43.0081571339
399 23 2 16.2505145454 7.06096409186 41.9423493974
400 23 2 15.6419343719 6.22936159484 41.8350299189
401 23 2 15.2737785725 5.29911695573 41.5656672823
402 23 2 15.1851593875 4.34416723904 41.173662576
403 23 2 15.3897100421 3.44070131103 40.7095953849
404 23 2 15.8743421138 2.66021542826 40.2306135971
405 23 2 16.6004385078 2.06299654484 39.7952245262
406 23 2 17.5073733017 1.69262731773 39.4579621263
407 23 2 18.5180376362 1.57201366403 39.2644163675
408 23 2 19.5458679816 1.70129694786 39.2470778323
409 23 2 20.5027361722 2.05784109541 39.4223762857
410 23 2 21.3069820532 2.59829581254 39.7891831462
411 23 2 21.8908565851 3.26254784825 40.3289143526
412 23 2 22.2066969882 3.97920015685 41.0072242519
413 23 2 22.231271077 4.6720795478 41.7771361137
414 23 2 21.9678948121 5.26717966848 42.5833239335
415 24 1 17.1523988103 33.0453080768 41.8522549018
416 24 1 13.2723684 30.1360064237 44.4978775067
417 24 2 16.958552026 33.4277011429 41.5007146407
418 24 2 16.4667172473 33.9634472115 40.7627954637
419 24 2 15.8335848641 34.2301012852 39.9872382437
420 24 2 15.1015884499 34.2100439431 39.2542791972
421 24 2 14.3221727707 33.9117887433 38.6402718309
422 24 2 13.5511047313 33.3692062351 38.210727524
423 24 2 12.8433903718 32.6384367489 38.0143443406
424 24 2 12.2482612136 31.7927733554 38.0785683319
425 24 2 11.8046869378 30.9159813976 38.4070919014
426 24 2 11.5378234033 30.0946635039 38.9795172527
427 24 2 11.456719757 29.4103659904 39.7532155935
428 24 2 11.5534936285 28.9321461313 40.6672126369
429 24 2 11.8040495873 28.7102777737 41.647746244
430 24 2 12.1702753763 28.7716690104 42.614989646
431 24 2 12.6035157429 29.1174095794 43.4903274407
432 24 2 13.0490072347 29.7226715368 44.2035211765
433 25 1 57.8997066557 79.8473358752 13.1593434614
434 25 1 56.5168401778 74.7767160561 11.4580245567
435 25 2 58.192083853 79.8641339583 13.6301034714
436 25 2 58.5669012056 79.7559201287 14.5899220639
437 25 2 58.699012863 79.4626157657 15.5747921425
438 25 2 58.5878363804 78.9956606237 16.4929657079
439 25 2 58.2549643765 78.3823222618 17.2587739698
440 25 2 57.7421964242 77.6632106782 17.800435828
441 25 2 57.1077291314 76.8885768175 18.0666005279
442 25 2 56.4208516757 76.1137323315 18.0310281444
443 25 2 55.7556302806 75.39400807 17.6949812814
444 25 2 55.184157278 74.7797108215 17.0871099883
445 25 2 54.7699800841 74.3115379843 16.2608403848
446 25 2 54.5623090226 74.0168681069 15.2895050129
447 25 2 54.5915319353 73.9072654069 14.2596587716
448 25 2 54.8664444112 73.9774257232 13.2631896693
449 25 2 55.3734480926 74.2056599765 12.3889434775
450 25 2 56.0777901283 74.5558710703 11.7146256759
451 26 1 41.1978745738 12.6436235678 43.3896641255
452 26 1 39.9285079848 16.7315289812 39.8974257523
453 26 2 41.3212318959 12.1600150545 43.148236362
454 26 2 41.350034294 11.2929964779 42.5817566881
455 26 2 41.1234610797 10.5480110912 41.8983012299
456 26 2 40.6720007282 9.99872285192 41.144699218
457 26 2 40.0466395762 9.70095844562 40.3741735538
458 26 2 39.3142145537 9.68761883283 39.6414896846
459 26 2 38.5513211762 9.96568041432 38.9979638788
460 26 2 37.8373320684 10.5155591508 38.4867858861
461 26 2 37.2471623615 11.292895596 38.1390823064
462 26 2 36.8444413793 12.2325981411 37.971079484
463 26 2 36.6757129952 13.2547759416 37.9826245194
464 26 2 36.7661932829 14.2720207536 38.1571992058
465 26 2 37.1174721383 15.1973739621 38.4634256194
466 26 2 37.7073683649 15.9522526262 38.8579261332
467 26 2 38.4919514308 16.473612104 39.2892771722
468 26 2 39.4095456189 16.7196924031 39.7026963343
469 27 1 57.5626642805 50.4236164916 4.57640360872
470 27 1 57.2268130317 53.2603033915 9.30487084791
471 27 2 58.0695249587 50.4013795363 4.35284297106
472 27 2 59.0113314621 50.592973436 3.96587746997
473 27 2 59.8798947618 51.0697821219 3.66305527381
474 27 2 60.6071175528 51.7865849231 3.48758229112
475 27 2 61.1377853393 52.6762863465 3.47105689004
476 27 2 61.4345990891 53.6560316514 3.63058979144
477 27 2 61.4815749404 54.6347588382 3.96724447251
478 27 2 61.2855010878 55.5214987061 4.4659402336
479 27 2 60.8753190571 56.2336664525 5.09682676374
480 27 2 60.2994857622 56.704589057 5.81800491666
481 27 2 59.6215567869 56.8895823491 6.57934570601
482 27 2 58.9143934635 56.7700238511 7.32705942847
483 27 2 58.2535217569 56.3550501666 8.00859845145
484 27 2 57.710248275 55.6807242043 8.57744678934
485 27 2 57.3451608615 54.8067481396 8.99735991129
486 27 2 57.2026061767 53.811021721 9.2456683333
487 28 1 62.1955189009 27.4684943042 6.37422949144
488 28 1 58.2900673689 25.3286265209 3.10522272136
489 28 2 62.1729854716 27.3043745761 6.90332168328
490 28 2 61.9048120907 27.0601213625 7.87382331472
491 28 2 61.3610520352 26.9008137914 8.74123101066
492 28 2 60.5862711057 26.8225130818 9.42462951903
493 28 2 59.6460920379 26.813896894 9.85987553337
494 28 2 58.621213166 26.85729133 10.0054441838
495 28 2 57.6000529847 26.9302818628 9.84621391798
496 28 2 56.6706910403 27.0077563602 9.39484479003
497 28 2 55.9128397148 27.0641939884 8.6906245306
498 28 2 55.390578656 27.0759913683 7.79588757514
499 28 2 55.1465140884 27.0236139599 6.79033344676
500 28 2 55.1978953699 26.8933765839 5.76376235767
501 28 2 55.5350427589 26.6786907885 4.80789015988
502 28 2 56.122229697 26.38066537 4.00798869043
503 28 2 56.9009391892 26.0080053085 3.43511347132
504 28 2 57.7951974713 25.5762183323 3.13962718866
505 29 1 46.9022192908 63.1297775664 69.7308261509
506 29 1 45.8521494819 57.7741302705 68.8750303224
507 29 2 47.4357418244 63.2520059718 69.8191183423
508 29 2 48.4185902799 63.3068884265 70.1423007071
509 29 2 49.3116131621 63.1224748008 70.6341866264
510 29 2 50.0422198156 62.7036504024 71.2377179449
511 29 2 50.5526233896 62.076666454 71.8856603276
512 29 2 50.805107956 61.2867473654 72.5067314896
513 29 2 50.7854662144 60.3939686486 73.0320983862
514 29 2 50.5042944505 59.467781196 73.4016511605
515 29 2 49.9960267121 58.5806810168 73.5694819963
516 29 2 49.3157962384 57.8016014199 73.5080694933
517 29 2 48.5344102122 57.1896299267 73.2107871684
518 29 2 47.7318958746 56.7886226016 72.6925074425
519 29 2 46.9902062556 56.6232066889 71.9882460592
520 29 2 46.3857503749 56.6965359055 71.1499704926
521 29 2 45.9824287638 56.9900029877 70.2418632518
522 29 2 45.8258091022 57.4649356938 69.3344718161
523 30 1 69.5596440398 65.3543120453 29.1477774684
524 30 1 72.2818162625 61.1085835693 31.4020088584
525 30 2 69.0542023037 65.232087245 28.9554981463
526 30 2 68.2226277396 64.8280729261 28.487837815
527 30 2 67.5988171044 64.2185563164 27.928552731
528 30 2 67.2332821014 63.4467521027 27.3419076694
529 30 2 67.1529933 62.5706670528 26.7946611939
530 30 2 67.3589218411 61.6578128542 26.3499807927
531 30 2 67.8259509194 60.7790526039 26.0616853303
532 30 2 68.5051651139 60.0021418267 25.969339602
533 30 2 69.3283088971 59.3855527402 26.0946481086
534 30 2 70.2140079443 58.9731446684 26.4394767491
535 30 2 71.0751861855 58.7901663813 26.9856827491
536 30 2 71.827002557 58.8409547376 27.6967683259
537 30 2 72.3945840369 59.1085393909 28.5212073644
538 30 2 72.7198501214 59.5561895921 29.3971418841
539 30 2 72.7668067072 60.1307620985 30.2580202293
540 30 2 72.5248268581 60.7675450385 31.0386630741
541 31 1 41.8219530329 78.7608134097 25.4851138395
542 31 1 37.4068395841 75.574642606 26.4195012887
543 31 2 42.279695621 78.4871033163 25.3336671627
544 31 2 43.0867254182 77.844204853 25.2396752303
545 31 2 43.7601978634 77.0710856693 25.3885765558
546 31 2 44.2314936836 76.2244902596 25.7554641044
547 31 2 44.450421465 75.3678602797 26.29556198
548 31 2 44.389792466 74.5655520097 26.9483066281
549 31 2 44.0478987983 73.8769704511 27.6428670418
550 31 2 43.4486690965 73.3511547195 28.3046008191
551 31 2 42.6394874868 73.0223082604 28.8618576181
552 31 2 41.6868746506 72.9066812968 29.2525098942
553 31 2 40.6704246425 73.0010896643 29.4296156599
554 31 2 39.6755501043 73.2832050396 29.3656971212
555 31 2 38.7856971318 73.7135901072 29.0552452054
556 31 2 38.0747393855 74.2392931655 28.515221698
557 31 2 37.6002447043 74.798674533 27.7835132216
558 31 2 37.3982279506 75.32702484 26.9154779715
559 32 1 58.8029261602 67.7231375291 11.1403959703
560 32 1 55.8458514298 64.1878564542 14.185964525
561 32 2 58.9113439834 68.2085248981 11.3853985533
562 32 2 58.8823508954 69.1160175926 11.8844641016
563 32 2 58.5582932037 69.9466477765 12.4121857339
564 32 2 57.9718833819 70.6192847984 12.9386199357
565 32 2 57.1797465987 71.0671986609 13.4339405387
566 32 2 56.2572594857 71.2441422823 13.8711572955
567 32 2 55.2916797587 71.128566794 14.2285759694
568 32 2 54.3741929099 70.7255856624 14.4917757055
569 32 2 53.5916008944 70.0665086102 14.6549234532
570 32 2 53.0184103635 69.2059878186 14.7213056333
571 32 2 52.7100415832 68.2170365275 14.7030285895
572 32 2 52.6977770245 67.1843740734 14.6199151274
573 32 2 52.9859100501 66.1967039484 14.4976977189
574 32 2 53.5513535859 65.3386287142 14.3656730561
575 32 2 54.3457444457 64.6829387046 14.254031736
576 32 2 55.2998515068 64.283977381 14.1911064685
577 33 1 73.1823479062 39.6640774852 37.5919671499
578 33 1 70.3749103026 35.0511876062 36.426835343
579 33 2 72.9134065438 40.1357855304 37.4799687047
580 33 2 72.3757732019 40.9161818091 37.0611823046
581 33 2 71.8207215969 41.4991808511 36.4088941444
582 33 2 71.2808651483 41.8271887407 35.5876658871
583 33 2 70.7874322779 41.8658533241 34.6774576343
584 33 2 70.3674200221 41.6071953169 33.7663397761
585 33 2 70.0411333247 41.0703355938 32.9424656109
586 33 2 69.8203342953 40.2997523726 32.2860364077
587 33 2 69.7071701246 39.361227143 31.8619912744
588 33 2 69.6939773736 38.33584886 31.7140881324
589 33 2 69.7639804754 37.3126229025 31.8609152986
590 33 2 69.8928207837 36.3803584704 32.29419721
591 33 2 70.050776798 35.6195738637 32.979548719
592 33 2 70.2054731991 35.0951574547 33.8596092082
593 33 2 70.3248317726 34.8504532865 34.8592708571
594 33 2 70.3799952529 34.9033103785 35.8925245188