LAMMPS input file for bananas

4320 atoms

2 atom types

0 63.4960420787 xlo xhi
0 63.4960420787 ylo yhi
0 63.4960420787 zlo zhi

Masses

 1 1
 2 1

Atoms

1 1 1 60.0435633626 27.0286664516 35.3352250259
2 1 1 62.9622666752 30.9130870407 32.7064536928
3 1 2 59.4946107691 27.061217002 35.2647048175
4 1 2 58.5012585073 27.3469696835 35.1936646871
5 1 2 57.628690576 27.9056023032 35.19147092
6 1 2 56.9551808476 28.6914087903 35.2398736232
7 1 2 56.5408595712 29.6379767831 35.3160111709
8 1 2 56.4222326615 30.6642409383 35.39449398
9 1 2 56.6088542816 31.6818718203 35.4497187033
10 1 2 57.0824560074 32.6033268934 35.458201906
11 1 2 57.7986119448 33.3498297899 35.4007205178
12 1 2 58.6907880319 33.8585505652 35.2640639647
13 1 2 59.6764064405 34.0883324797 35.0422382773
14 1 2 60.6643723246 34.0234433253 34.7370124252
15 1 2 61.5633768719 33.6750093742 34.3577570801
16 1 2 62.2902198584 33.0800012491 33.920590504
17 1 2 62.7773931261 32.2978641496 33.4469094129
18 1 2 62.9792337713 31.4050995811 32.9614387234
19 2 1 50.4729839124 28.6086752987 10.5124508475
20 2 1 51.1590610996 28.9388430226 5.04086255629
21 2 2 50.4107452138 29.0957485072 10.7698758307
22 2 2 50.4883072202 30.0637841282 11.1309037837
23 2 2 50.8018219044 31.0372560814 11.2967679155
24 2 2 51.3120305308 31.9371900592 11.2397065076
25 2 2 51.9617462369 32.6913145438 10.9522769089
26 2 2 52.6810664626 33.2406481628 10.4480339128
27 2 2 53.3937443819 33.5448756843 9.76029427474
28 2 2 54.0241385972 33.5860226415 8.93909997842
29 2 2 54.5041076509 33.3700936584 8.04665704302
30 2 2 54.7792209365 32.9265251435 7.15166561073
31 2 2 54.8137199033 32.3055022404 6.3230581124
32 2 2 54.5937773527 31.5733845858 5.62371626075
33 2 2 54.1287577505 30.8066578061 5.10473955031
34 2 2 53.4503636804 30.0849620569 4.80078767503
35 2 2 52.6097462388 29.4838330358 4.72692138988
36 2 2 51.6728427488 29.0678171054 4.87722976323
37 3 1 24.958755993 38.0525980071 17.8317313167
38 3 1 19.5919575863 39.058612214 18.6704215683
39 3 2 25.150212458 38.2058105568 17.3344869857
40 3 2 25.3222786837 38.3712600992 16.3262857786
41 3 2 25.2318946763 38.3806912017 15.294204485
42 3 2 24.877795118 38.2496811612 14.3293729539
43 3 2 24.2827516588 38.0066081093 13.5167913984
44 3 2 23.4914973412 37.6900644216 12.9275828532
45 3 2 22.566649303 37.3453391258 12.6125104999
46 3 2 21.5830013926 37.0202899278 12.5973507391
47 3 2 20.6207069095 36.7609811099 12.8805437403
48 3 2 19.7579728455 36.6074848943 13.4333356159
49 3 2 19.0639315262 36.5902289674 14.2023992617
50 3 2 18.5923393845 36.7272230775 15.1146949796
51 3 2 18.3766772052 37.0224174942 16.0841278509
52 3 2 18.4270984412 37.465342952 17.0193950582
53 3 2 18.7295037531 38.0320648958 17.8323078929
54 3 2 19.2468261267 38.6873650519 18.4458299206
55 4 1 40.2992742166 36.710792964 5.51854556193
56 4 1 41.391241291 31.4556862694 6.82600592401
57 4 2 40.5914899737 37.0874800968 5.80156206922
58 4 2 41.064160651 37.6687121212 6.51724480316
59 4 2 41.418272267 38.0371368324 7.41853177564
60 4 2 41.6387315703 38.1506647427 8.42449356437
61 4 2 41.7226273605 37.9904395265 9.44465991731
62 4 2 41.6794958366 37.5625567242 10.3872658744
63 4 2 41.5304513977 36.8975081496 11.1676158983
64 4 2 41.3062621219 36.0474026428 11.7158036463
65 4 2 41.0445453385 35.0812164887 11.9830837468
66 4 2 40.7863389088 34.0785064129 11.9463148092
67 4 2 40.5723607347 33.1221581989 11.6100687003
68 4 2 40.4392974308 32.2908318704 11.0062138304
69 4 2 40.4164604375 31.6517920403 10.1910104334
70 4 2 40.5231143617 31.2547769212 9.2399825964
71 4 2 40.7667210593 31.1274648202 8.24103444108
72 4 2 41.1422595068 31.272951335 7.28643789822
73 5 1 32.9019847091 28.7223966846 24.9161390581
74 5 1 30.2524479364 25.1727296639 28.2173221784
75 5 2 32.8306499951 29.2573277681 25.0431889793
76 5 2 32.469368147 30.1989774535 25.280299307
77 5 2 31.8417591717 30.9894600608 25.5141672886
78 5 2 31.0050854196 31.5562120143 25.7426826425
79 5 2 30.0356649368 31.8470621893 25.9642229648
80 5 2 29.0219152791 31.8349871707 26.1778016072
81 5 2 28.0562944879 31.5205743654 26.3831576072
82 5 2 27.2268737874 30.9319684612 26.5807794742
83 5 2 26.6093101274 30.1223061141 26.7718606631
84 5 2 26.2599502546 29.1648726842 26.9581907941
85 5 2 26.2106948575 28.1464224706 27.1419925337
86 5 2 26.4660909036 27.1592712893 27.3257190045
87 5 2 27.0029171958 26.2928821332 27.5118301897
88 5 2 27.7723009222 25.6257108591 27.702568712
89 5 2 28.7041722821 25.2180551467 27.8997554248
90 5 2 29.7136511618 25.1065585256 28.1046234463
91 6 1 24.6692031066 44.4743510222 59.215609779
92 6 1 30.0273822329 45.8183819315 59.2541899155
93 6 2 24.3708229291 44.691914251 59.6291519161
94 6 2 23.9852128605 45.0108043364 60.5363806632
95 6 2 23.8599171395 45.2052627696 61.546299923
96 6 2 24.0140964362 45.2750773414 62.5684568
97 6 2 24.44143802 45.2313967978 63.5112829728
98 6 2 25.1107311479 45.0957146609 64.2904409014
99 6 2 25.9687118404 44.8979101524 64.8365109692
100 6 2 26.9449177507 44.673524782 65.1013188948
101 6 2 27.9581106194 44.4605228338 65.0623266894
102 6 2 28.9236809247 44.2958310237 64.7246869342
103 6 2 29.7613598143 44.2119727273 64.1207731364
104 6 2 30.4025353965 44.2341035617 63.3072289703
105 6 2 30.7965065307 44.3777185179 62.3598053581
106 6 2 30.9151041014 44.6472396339 61.3664559757
107 6 2 30.7552585571 45.0356129379 60.4193205103
108 6 2 30.3392796922 45.5249513986 59.6063263738
109 7 1 52.9797178936 2.78666186828 7.04228988591
110 7 1 52.7263512454 4.21031317696 1.71059096772
111 7 2 53.2276557828 3.15747067616 7.37154543883
112 7 2 53.8609904905 3.84095289884 7.82452359559
113 7 2 54.6585568949 4.47129950998 8.02452607457
114 7 2 55.5415011722 5.00764646326 7.94584087869
115 7 2 56.4231875337 5.41769752998 7.5881576476
116 7 2 57.2170948463 5.6806680139 6.97659594612
117 7 2 57.8447028027 5.78917922082 6.15941568314
118 7 2 58.2426488374 5.74993100679 5.20361834982
119 7 2 58.3685034551 5.58309110416 4.1888400128
120 7 2 58.2046375661 5.32045688667 3.20009269959
121 7 2 57.7598293304 5.00255712382 2.32001577941
122 7 2 57.0684640521 4.67495789186 1.62134360565
123 7 2 56.1874000507 4.38410934773 1.16027597389
124 7 2 55.1907861774 4.1731119214 0.971355660768
125 7 2 54.1633033451 4.07778782687 1.06431994223
126 7 2 53.1924460902 4.12341596312 1.42321306682
127 8 1 46.5630331882 58.5740893266 39.920492925
128 8 1 43.3366029135 54.2979798859 41.27068802
129 8 2 46.2998514984 59.0598780642 39.874381228
130 8 2 45.6621230659 59.8450837343 39.6503175917
131 8 2 44.8758059803 60.4074884328 39.2776831768
132 8 2 43.999844073 60.6947474093 38.8047952106
133 8 2 43.1013520612 60.6795947104 38.2891087635
134 8 2 42.249498221 60.3623283987 37.7919798732
135 8 2 41.5091998837 59.7707833852 37.3730731055
136 8 2 40.9352063948 58.9577943514 37.0849232889
137 8 2 40.5671088572 57.9963800095 36.9681471054
138 8 2 40.4257315083 56.9730876416 37.0477409881
139 8 2 40.5112336461 55.9801045466 37.3308027637
140 8 2 40.80309511 55.1068554144 37.8058847041
141 8 2 41.2619866383 54.4318515039 38.4440369565
142 8 2 41.8333546252 54.015534552 39.201446245
143 8 2 42.4523935365 53.8947676708 40.0234293335
144 8 2 43.0499527606 54.0794753733 40.8494172568
145 9 1 10.0203126454 41.0739821575 34.821304858
146 9 1 12.1430677015 38.9622782705 39.4637835845
147 9 2 9.86669088237 41.6056014086 34.85540638
148 9 2 9.46634982686 42.5261173451 35.1119750088
149 9 2 8.96312567751 43.2844542906 35.6070917059
150 9 2 8.4167928394 43.8188699252 36.306641826
151 9 2 7.89105495938 44.088031758 37.1578771639
152 9 2 7.44773850893 44.0747844731 38.094223812
153 9 2 7.1411574665 43.7877135907 39.0413501943
154 9 2 7.01316274357 43.2603629203 39.923942191
155 9 2 7.08932758591 42.5481771318 40.6725678188
156 9 2 7.3766166406 41.7234481219 41.230005771
157 9 2 7.86275114702 40.8687258015 41.5564609866
158 9 2 8.51732811313 40.0692938913 41.6331918636
159 9 2 9.29459146687 39.4053965388 41.4642185061
160 9 2 10.1376025999 38.9449242792 41.0759563022
161 9 2 10.9834301694 38.7372259939 40.5148082326
162 9 2 11.7688861221 38.8086108922 39.8429353622
163 10 1 43.321189259 36.7958178189 37.3899579543
164 10 1 37.9082145784 36.0288154341 38.1833075055
165 10 2 43.4560235248 37.2758011029 37.1474350567
166 10 2 43.5446841976 38.1086290388 36.5375277479
167 10 2 43.4040477821 38.8017123138 35.7803573682
168 10 2 43.0343779366 39.3039823069 34.9530006915
169 10 2 42.4568141041 39.5817625177 34.1389317847
170 10 2 41.711444709 39.6218380896 33.4204135702
171 10 2 40.8536532043 39.4326603084 32.87099978
172 10 2 39.9490700178 39.0435762904 32.5488307301
173 10 2 39.0675905138 38.502154071 32.4913339855
174 10 2 38.2770042181 37.8698469055 32.7118129382
175 10 2 37.636815983 37.2163919692 33.1982342382
176 10 2 37.1928222801 36.613454 33.9143246014
177 10 2 36.9729369732 36.1280932495 34.8028770224
178 10 2 36.9846470454 35.8166531199 35.7909650402
179 10 2 37.2143301795 35.7196246137 36.7965897904
180 10 2 37.6284963964 35.8579556871 37.7361539819
181 11 1 18.315869547 39.3458905013 44.1885007297
182 11 1 23.1578181443 36.6871641182 44.1199524762
183 11 2 18.3365659687 39.8638607487 44.385122369
184 11 2 18.4892949152 40.7306690827 44.9317183735
185 11 2 18.7916556042 41.4020765071 45.6605805658
186 11 2 19.2328313331 41.8230849762 46.4981758478
187 11 2 19.7893527793 41.9615196394 47.3610603911
188 11 2 20.4272371665 41.8109614936 48.1634853187
189 11 2 21.1050857038 41.3913324577 48.825212486
190 11 2 21.7778569748 40.747079543 49.278827973
191 11 2 22.4009723423 39.9431236271 49.4758866834
192 11 2 22.9343791719 39.0589420893 49.3913279853
193 11 2 23.3462015231 38.1813246599 49.0257599207
194 11 2 23.615645555 37.3964627682 48.4054037845
195 11 2 23.7348948305 36.7820934241 47.5797041232
196 11 2 23.7098227629 36.4004136978 46.6168219969
197 11 2 23.55945727 36.2924116223 45.5974222807
198 11 2 23.3142464308 36.4741302446 44.6073212769
199 12 1 24.3801217074 50.2082200555 47.3119418924
200 12 1 19.084015966 51.7049482889 46.8333401441
201 12 2 24.4645586608 49.7308867006 47.5810233992
202 12 2 24.4825692784 48.9365159822 48.245930002
203 12 2 24.3056037783 48.3234443178 49.0621875332
204 12 2 23.9350596489 47.9369065703 49.9491687219
205 12 2 23.3899785533 47.8014896416 50.8198000249
206 12 2 22.7053107324 47.9188914422 51.5884981474
207 12 2 21.9287293844 48.2677661308 52.1789707316
208 12 2 21.1162853793 48.8056697315 52.5311702009
209 12 2 20.3272983729 49.472928788 52.6067669366
210 12 2 19.6189499781 50.1980794401 52.3926429198
211 12 2 19.0410718138 50.9043811631 51.9020874036
212 12 2 18.6316034862 51.5168114622 51.1735856338
213 12 2 18.413134495 51.9689039718 50.267311021
214 12 2 18.3908452609 52.2088066872 49.2596404953
215 12 2 18.5520349439 52.2040081364 48.2361929533
216 12 2 18.8672790915 51.9443007138 47.2840253246
217 13 1 33.8397117895 52.4203411577 0.173957742127
218 13 1 30.9621523901 49.2582361198 3.67234804247
219 13 2 33.8062281005 52.9653242648 0.270154642166
220 13 2 33.5121990421 53.941853591 0.452876833464
221 13 2 32.9419647533 54.7861932092 0.640955211417
222 13 2 32.1475943383 55.4219660127 0.836450983932
223 13 2 31.20158631 55.7918052029 1.04074928323
224 13 2 30.1902605448 55.8625831188 1.25443291473
225 13 2 29.2058904559 55.6284307355 1.47722923592
226 13 2 28.3382925189 55.1112726098 1.70803500698
227 13 2 27.6666397398 54.3588285155 1.94501694813
228 13 2 27.2522452471 53.4402639136 2.1857788382
229 13 2 27.132973764 52.4398857054 2.42757992378
230 13 2 27.3197903405 51.4494578836 2.66758473156
231 13 2 27.7957609177 50.5598374899 2.90312151416
232 13 2 28.5175958227 49.8526932384 3.13192577275
233 13 2 29.4195955059 49.3930616305 3.35234666007
234 13 2 30.4196388801 49.2234190515 3.56349745073
235 14 1 15.5780889163 31.8380099527 55.6688298471
236 14 1 10.683514116 30.4084288452 57.7942536737
237 14 2 15.9891946908 31.4792424323 55.7671125848
238 14 2 16.683695348 30.826548605 56.1734494107
239 14 2 17.2192432776 30.2350274825 56.8343133815
240 14 2 17.5379542055 29.7417343461 57.687856138
241 14 2 17.6017079708 29.3747712584 58.6546671644
242 14 2 17.3956230764 29.1507256358 59.6450118451
243 14 2 16.9294130979 29.0731583497 60.5670105345
244 14 2 16.2365013171 29.1322791629 61.3350131417
245 14 2 15.370974279 29.3058390829 61.8774059069
246 14 2 14.4026519483 29.5611582987 62.1431388046
247 14 2 13.4107238053 29.858104858 62.1063786166
248 14 2 12.4765309376 30.1527525872 61.7688635611
249 14 2 11.6761520164 30.4013848453 61.1597448585
250 14 2 11.0734689294 30.5644791782 60.3329296757
251 14 2 10.7143441175 30.6103096852 59.3621676322
252 14 2 10.6224403356 30.5178387497 58.3343287186
253 15 1 33.4251765225 20.9011082493 42.848490973
254 15 1 34.8026944157 20.3815745767 48.1730116349
255 15 2 32.9645434406 21.1948160209 42.7539685052
256 15 2 32.0112004436 21.6002401537 42.7391896811
257 15 2 31.0157114263 21.7989811814 42.9464422604
258 15 2 30.0702644155 21.7868090436 43.3700361697
259 15 2 29.2624862427 21.5787178507 43.984562402
260 15 2 28.6674555927 21.2075592119 44.7472089791
261 15 2 28.3408597824 20.7210478979 45.6016631494
262 15 2 28.3139190103 20.1774127675 46.4832441446
263 15 2 28.5905407192 19.6400893627 47.3247986585
264 15 2 29.1469634432 19.1719379286 48.0628216921
265 15 2 29.9339226016 18.8295138701 48.643244864
266 15 2 30.8811408338 18.6579128777 49.0263645987
267 15 2 31.9037335932 18.6866605761 49.190461002
268 15 2 32.9099461462 18.9270213424 49.1337775707
269 15 2 33.8095167714 19.370971588 48.8746812937
270 15 2 34.5219038742 19.9919310875 48.4499885495
271 16 1 15.0443215627 24.0797370694 31.7815456046
272 16 1 11.4539087704 21.3613809022 34.9811497661
273 16 2 15.0562259507 24.6287284632 31.8580199349
274 16 2 14.8452550391 25.636172571 31.9763316213
275 16 2 14.3472300905 26.5399266886 32.0693351518
276 16 2 13.6053848196 27.2589471875 32.1475983456
277 16 2 12.6851765118 27.7290284147 32.2230325641
278 16 2 11.6683197667 27.9086548667 32.3078070222
279 16 2 10.6453384303 27.7827852163 32.413239597
280 16 2 9.7073145892 27.3642232896 32.5487652334
281 16 2 8.93758668097 26.6924510313 32.7210759743
282 16 2 8.4041534189 25.8300298311 32.9335109985
283 16 2 8.15347589084 24.8568982201 33.1857522637
284 16 2 8.20624275518 23.8630856877 33.4738534951
285 16 2 8.55548452501 22.9405067337 33.7905998779
286 16 2 9.16720881818 22.1745831078 34.1261656682
287 16 2 9.98349867208 21.6364578451 34.4690097833
288 16 2 10.92779152 21.376510769 34.806927741
289 17 1 9.04870492151 59.8144576248 15.7339708211
290 17 1 9.09049013336 56.6635373463 11.1965765847
291 17 2 9.48586534929 60.1510301561 15.7886634125
292 17 2 10.4254017726 60.5833796411 15.8502689584
293 17 2 11.4508517549 60.730945215 15.8390107863
294 17 2 12.4717015431 60.5858137925 15.7377557063
295 17 2 13.3978566797 60.1667508369 15.5375735058
296 17 2 14.1478538715 59.5174899389 15.238550915
297 17 2 14.6562861512 58.7027466162 14.8497837015
298 17 2 14.8797645475 57.8023196673 14.3885476154
299 17 2 14.800872874 56.9038177241 13.8787237506
300 17 2 14.429755168 56.0946739594 13.3486218476
301 17 2 13.8031910887 55.4541767871 12.8283999355
302 17 2 12.9812435492 55.0462429346 12.3473155088
303 17 2 12.0417841432 54.9135916044 11.9310587848
304 17 2 11.0733953566 55.0738507332 11.599411109
305 17 2 10.1672965112 55.5179502516 11.3644419382
306 17 2 9.40902936709 56.210948798 11.229408742
307 18 1 55.5014273226 29.3073759705 10.871315576
308 18 1 53.6612194827 30.9461459072 15.8156112045
309 18 2 55.1366079867 29.3598602668 10.4571491374
310 18 2 54.3113086457 29.3444176266 9.83097621102
311 18 2 53.3590183873 29.197120754 9.4503229484
312 18 2 52.3579338578 28.9479860461 9.35434548624
313 18 2 51.3906991707 28.6363121463 9.55625252288
314 18 2 50.5368731169 28.3070979783 10.0421013808
315 18 2 49.8656775936 28.0069412144 10.7720688442
316 18 2 49.4296882132 27.7797910219 11.6840809392
317 18 2 49.2600421766 27.6629422146 12.69947081
318 18 2 49.3636002013 27.6836359297 13.730148993
319 18 2 49.7223211843 27.8565766711 14.6866325357
320 18 2 50.2949066012 28.1825920331 15.4862011289
321 18 2 51.0205647561 28.6485572676 16.0604368415
322 18 2 51.824551782 29.2285915696 16.3614602324
323 18 2 52.6249843447 29.8864170436 16.3662944331
324 18 2 53.34030309 30.5786653364 16.0789594285
325 19 1 46.4110378264 29.2237104359 1.42925701713
326 19 1 44.5093628515 25.2141291185 4.71937570956
327 19 2 46.3257831725 29.738874009 1.61558931426
328 19 2 45.9450749365 30.6266157395 1.99032371375
329 19 2 45.3105615945 31.3441602604 2.38525749378
330 19 2 44.4830150634 31.8239635123 2.78325949077
331 19 2 43.5408017196 32.0201509172 3.16691888135
332 19 2 42.5727395126 31.9126987236 3.52013213239
333 19 2 41.670002447 31.5092591176 3.82957079501
334 19 2 40.9178103153 30.8444627469 4.08589635707
335 19 2 40.3876611416 29.97676223 4.28461142357
336 19 2 40.1308143278 28.9831043557 4.42646964223
337 19 2 40.1736184963 27.9519165893 4.51740701044
338 19 2 40.5151098832 26.9750471458 4.56800082506
339 19 2 41.1271001832 26.1393932698 4.59250559
340 19 2 41.9567458377 25.5189807846 4.60755375632
341 19 2 42.9313645847 25.1682168361 4.63063971877
342 19 2 43.9650602519 25.1169308265 4.67852524849
343 20 1 50.1697486721 33.8432513236 55.3016336574
344 20 1 55.4376003779 34.3187295555 56.8958889437
345 20 2 49.7956705012 33.9437759572 55.698297127
346 20 2 49.2264625195 33.9794092413 56.5632725913
347 20 2 48.8780757536 33.827260479 57.5270814035
348 20 2 48.7904377838 33.5157874114 58.5113344836
349 20 2 48.9797096345 33.0879697643 59.4357793108
350 20 2 49.4368127401 32.5973917611 60.2256147271
351 20 2 50.1282564321 32.1033580637 60.8183088621
352 20 2 50.9991905238 31.6654883114 61.1692987468
353 20 2 51.9784047582 31.3382829499 61.2560521081
354 20 2 52.9848194329 31.1661556616 61.0801211261
355 20 2 53.9348755979 31.179385177 60.6670009565
356 20 2 54.7501512307 31.3913554493 60.0638059157
357 20 2 55.3645091943 31.7973357429 59.3349751363
358 20 2 55.7301254601 32.3749118273 58.556399113
359 20 2 55.8218481403 33.0860289743 57.8085024862
360 20 2 55.6394900156 33.8804605449 57.1689135516
361 21 1 57.3376254067 30.7925536498 15.2090647907
362 21 1 55.9442732455 29.4121472135 20.3734659067
363 21 2 57.821685277 30.5860771879 15.0346082036
364 21 2 58.8066787448 30.2895830401 14.910797462
365 21 2 59.8166402998 30.1178835893 15.0655455385
366 21 2 60.759339366 30.0691014473 15.492615538
367 21 2 61.5486761633 30.1301556418 16.1609491499
368 21 2 62.1125294728 30.2779539118 17.0174975303
369 21 2 62.3993302927 30.4814975057 17.992056562
370 21 2 62.3827622151 30.7047066347 19.0036657725
371 21 2 62.0641600964 30.9097090491 19.9679876644
372 21 2 61.4723883884 31.0602919923 20.8049948531
373 21 2 60.6612102209 31.1252028974 21.446264349
374 21 2 59.7043870363 31.0809979745 21.8412141298
375 21 2 58.6889554307 30.9141790499 21.961713557
376 21 2 57.7072940014 30.6224238885 21.8046474084
377 21 2 56.848703284 30.2147978592 21.3921998219
378 21 2 56.1912662482 29.7109276508 20.7698322713
379 22 1 53.3734946162 19.3834509786 12.9715212426
380 22 1 52.1057489479 15.10944187 16.233983215
381 22 2 52.9707892215 19.5394271017 12.6238412141
382 22 2 52.2129502082 19.6020089205 11.9201270982
383 22 2 51.4958918218 19.3610930079 11.2121463041
384 22 2 50.8693153847 18.8363811363 10.5753343762
385 22 2 50.3746750318 18.0734423213 10.0786400064
386 22 2 50.0413992762 17.1395593276 9.77824054589
387 22 2 49.8842086794 16.1175960247 9.71242158964
388 22 2 49.9017741114 15.0984445671 9.8980873465
389 22 2 50.076837897 14.172740817 10.3292198659
390 22 2 50.3777868073 13.422603128 10.977427558
391 22 2 50.7615335206 12.9141474762 11.794533011
392 22 2 51.1774439168 12.6914611662 12.7169642339
393 22 2 51.571952242 12.7725843908 13.6715490729
394 22 2 51.8934434839 13.1478659156 14.5821846584
395 22 2 52.0969579423 13.7808427637 15.3767739777
396 22 2 52.1482891854 14.6115637179 15.9937973248
397 23 1 21.8234910335 33.9467835095 4.7440581122
398 23 1 19.1987760743 30.6965209354 8.35856439163
399 23 2 21.7494121607 34.4906327453 4.82230079513
400 23 2 21.3833248993 35.4479410137 4.97392865342
401 23 2 20.7517423994 36.2529890327 5.13656703774
402 23 2 19.9123224195 36.8336271862 5.31456547379
403 23 2 18.9416665492 37.1381602177 5.51087345966
404 23 2 17.9283381785 37.1400591145 5.72677162686
405 23 2 16.964790182 36.8403791564 5.96175501428
406 23 2 16.1389380861 36.2676637299 6.21357909395
407 23 2 15.5261468039 35.4753426745 6.47846435386
408 23 2 15.1823613248 34.5368622961 6.75144079029
409 23 2 15.1390074783 33.538990932 7.02680091042
410 23 2 15.4001275534 32.5739102491 7.29861995505
411 23 2 15.9420118552 31.7308131314 7.56129592453
412 23 2 16.7153597797 31.0877739872 7.81006018606
413 23 2 17.6497734324 30.7046324748 8.04141212186
414 23 2 18.6601742084 30.6175392784 8.25343820109
415 24 1 15.2528240432 32.4862804793 53.361351872
416 24 1 18.5011610789 35.8370629757 50.4052473025
417 24 2 14.9231456374 32.7425391851 53.7260780877
418 24 2 14.5067041775 33.327144713 54.4732480138
419 24 2 14.3780661358 34.0150919634 55.2372053726
420 24 2 14.5438671051 34.7594332654 55.9385726629
421 24 2 14.9839053496 35.5080807811 56.5036773009
422 24 2 15.6529831386 36.2085541728 56.8712666791
423 24 2 16.4850263992 36.8127640453 56.9980911785
424 24 2 17.3991071913 37.281395166 56.8628462549
425 24 2 18.3068200731 37.5874899431 56.4681142917
426 24 2 19.1203400209 37.7189055381 55.8401292225
427 24 2 19.7604274449 37.6794206532 55.0263853779
428 24 2 20.1636506666 37.4883911123 54.0913085045
429 24 2 20.2881675463 37.1789856298 53.1103835302
430 24 2 20.1175392825 36.7951625709 52.1632743146
431 24 2 19.6622287646 36.3876632638 51.3265625015
432 24 2 18.9586469086 36.0093870635 50.6667673064
433 25 1 29.7897626984 10.4450004158 44.795606857
434 25 1 26.6549043804 5.97579335343 45.642272447
435 25 2 29.5677542132 10.9223809083 44.9693931795
436 25 2 28.9660485374 11.7412836396 45.1713798315
437 25 2 28.1632949244 12.3950434133 45.2118125684
438 25 2 27.2240257197 12.8186546816 45.1032913002
439 25 2 26.2252163002 12.9680893178 44.871992696
440 25 2 25.2492689744 12.8243096625 44.5552842511
441 25 2 24.3765022318 12.3950037552 44.1983183394
442 25 2 23.6778299276 11.7138845901 43.8499166955
443 25 2 23.2082976744 10.8376172669 43.5581204436
444 25 2 23.0020655814 9.8406541182 43.365811278
445 25 2 23.069294652 8.80844857867 43.3068029106
446 25 2 23.3952206356 7.8296663326 43.4027590423
447 25 2 23.9414997491 6.98810367388 43.6612187738
448 25 2 24.6497036107 6.35504969777 44.074909437
449 25 2 25.4466448308 5.98278849044 44.6224094793
450 25 2 26.2510478465 5.89983357417 45.2701009811
451 26 1 14.2431395627 26.8819357095 58.726122492
452 26 1 12.6341910707 24.1046709244 63.2223515927
453 26 2 14.1275185712 27.4241263622 58.7326547579
454 26 2 13.6955414621 28.3633114152 58.8017722272
455 26 2 13.0212528245 29.1349527908 58.9545937955
456 26 2 12.1693826713 29.6731798072 59.1955895055
457 26 2 11.2208470964 29.9333968776 59.5211925623
458 26 2 10.2653729882 29.8963482787 59.9201244375
459 26 2 9.39331966402 29.5698732586 60.374422877
460 26 2 8.68744285956 28.9881915099 60.8610791122
461 26 2 8.21535176501 28.2087841365 61.3541350482
462 26 2 8.02334662792 27.3071544046 61.8270492741
463 26 2 8.13219860941 26.3699458216 62.2551162422
464 26 2 8.53525654837 25.4870448121 62.6177181126
465 26 2 9.19905319701 24.7433878105 62.9002040139
466 26 2 10.0663556711 24.2112195322 63.0952254313
467 26 2 11.0613820741 23.9435080605 63.2034060039
468 26 2 12.0967088152 23.9691169478 63.2332846815
469 27 1 34.6824645716 46.1008624966 36.4773785451
470 27 1 37.3783528572 42.3117121775 39.4594109514
471 27 2 34.4670955649 45.9139907348 36.0019032842
472 27 2 34.2811856072 45.4791647948 35.0800497705
473 27 2 34.3856515285 44.9535645476 34.1933247497
474 27 2 34.7648856334 44.3675980208 33.4276389562
475 27 2 35.3782358409 43.7571754672 32.8578707225
476 27 2 36.1637110131 43.1604362411 32.5410410189
477 27 2 37.0436312816 42.6142724981 32.511116145
478 27 2 37.9317083598 42.1509665735 32.7759117918
479 27 2 38.7409104897 41.795248534 33.3163806628
480 27 2 39.3913951542 41.5620420983 34.0883485836
481 27 2 39.8177865088 41.4551043796 35.0265408604
482 27 2 39.9751342153 41.4666834352 36.0505318935
483 27 2 39.8430105449 41.5782248352 37.072075756
484 27 2 39.4273723111 41.762062849 38.0031495739
485 27 2 38.7600179222 41.983942103 38.7639765762
486 27 2 37.8956890411 42.2061398664 39.2902975338
487 28 1 34.6075816587 17.1673410963 -0.585321570053
488 28 1 35.7773852828 18.9162701646 4.52259362662
489 28 2 34.3374098582 17.5339009703 -0.901585139016
490 28 2 33.6893990818 18.2336005903 -1.3064956064
491 28 2 32.915000145 18.9100975351 -1.43341361757
492 28 2 32.0931453494 19.5182442213 -1.26559730667
493 28 2 31.3070924715 20.0191230091 -0.813169053564
494 28 2 30.6368360386 20.383593441 -0.112192855943
495 28 2 30.1518160417 20.5949483165 0.778612807672
496 28 2 29.9045886654 20.6504365086 1.7832270103
497 28 2 29.9260359328 20.5615137223 2.81525548082
498 28 2 30.2225508913 20.3527983369 3.78580521086
499 28 2 30.7754549034 20.0598275073 4.61158681493
500 28 2 31.5427001546 19.7258180467 5.22250613527
501 28 2 32.4627021993 19.3977273299 5.56805313703
502 28 2 33.4599532186 19.121973254 5.62190576291
503 28 2 34.4519043559 18.9402033711 5.38432911835
504 28 2 35.3564898248 18.8854988256 4.88215130785
505 29 1 50.1596844166 51.7788724813 32.5514482312
506 29 1 55.0777283062 53.580701799 34.3076505178
507 29 2 49.9550994205 52.0488862711 32.1125642822
508 29 2 49.6214065231 52.7444007054 31.4209294558
509 29 2 49.3908589011 53.6340295691 30.9425380993
510 29 2 49.3003121666 54.6397317506 30.710558742
511 29 2 49.3738612254 55.6728863656 30.7357001181
512 29 2 49.6206440899 56.6423703137 31.0052350941
513 29 2 50.0340089745 57.4628639058 31.4841607131
514 29 2 50.5921205876 58.0626275256 32.1183886209
515 29 2 51.25995036 58.3900405036 32.8396750744
516 29 2 51.9924692058 58.4183062034 33.5718411772
517 29 2 52.7387518027 58.1478944637 34.2377163815
518 29 2 53.4466182994 57.6064987732 34.7661723781
519 29 2 54.0673903695 56.8465120837 35.0986062511
520 29 2 54.5603281108 55.9402513321 35.1942819772
521 29 2 54.8963433783 54.9733659453 35.0340434055
522 29 2 55.0606510913 54.0370311234 34.6220602893
523 30 1 35.994416866 14.6045274089 12.8076164575
524 30 1 35.0840320647 10.4631535734 16.3485504204
525 30 2 35.8636810305 15.108273206 12.9987444285
526 30 2 35.4153476139 15.9463693526 13.4111059298
527 30 2 34.7433334151 16.582339185 13.8773561845
528 30 2 33.9144298481 16.9569797683 14.3733534841
529 30 2 33.0097283739 17.03490763 14.8722447569
530 30 2 32.1172292298 16.8077838693 15.346913153
531 30 2 31.3238204434 16.2950742253 15.772449673
532 30 2 30.7073582213 15.5422748271 16.1284235569
533 30 2 30.3295705634 14.6167653433 16.4007444928
534 30 2 30.230430921 13.6016675051 16.5829469116
535 30 2 30.4245147238 12.5882687828 16.676779306
536 30 2 30.899670868 11.6677017767 16.6920448604
537 30 2 31.6181292571 10.9226377245 16.6457079166
538 30 2 32.5199434453 10.4197512385 16.5603477194
539 30 2 33.5284545959 10.2036430932 16.462100379
540 30 2 34.5572787291 10.292774984 16.3782766341
541 31 1 26.0992958474 34.6142518359 12.4918713363
542 31 1 22.9735991987 30.1724024654 11.4829185665
543 31 2 25.9212561458 34.9357571415 12.9069831178
544 31 2 25.3834172402 35.524832074 13.5681714773
545 31 2 24.6176313563 36.0404098923 14.0384921174
546 31 2 23.6873588032 36.4224468457 14.2876722817
547 31 2 22.67105241 36.6230710763 14.3055955773
548 31 2 21.6550067607 36.610946011 14.1032240566
549 31 2 20.7254926728 36.3741266065 13.7115990557
550 31 2 19.9608938436 35.9211481078 13.1790118598
551 31 2 19.4245623852 35.2802480837 12.5666020812
552 31 2 19.1590444489 34.4967926477 11.9427849473
553 31 2 19.1822022574 33.6291414582 11.3770154356
554 31 2 19.4855860107 32.7433283913 10.9334576378
555 31 2 20.0352040631 31.90704273 10.6651363745
556 31 2 20.7746211704 31.1834594663 10.6091041248
557 31 2 21.6301024121 30.62548107 10.7830637914
558 31 2 22.5173339319 30.2709155701 11.1837551286
559 32 1 49.2776825964 18.189281974 47.3905619834
560 32 1 46.8567541773 14.573707109 50.7941946084
561 32 2 49.1843273457 18.7222957608 47.5112379474
562 32 2 48.7848279891 19.6500408799 47.7417575112
563 32 2 48.1261968365 20.4146131738 47.9764577952
564 32 2 47.2689117313 20.9461087348 48.2131532289
565 32 2 46.2915572938 21.195867976 48.4494763889
566 32 2 45.2836621428 21.1409108235 48.6830937838
567 32 2 44.3375386018 20.786031288 48.9119185455
568 32 2 43.5398686769 20.1633605038 49.1343006415
569 32 2 42.9638032241 19.3294380617 49.349177271
570 32 2 42.6622944438 18.3600585768 49.5561697365
571 32 2 42.6632694298 17.3433632112 49.7556179609
572 32 2 42.9670846889 16.3718058434 49.9485495047
573 32 2 43.5464936465 15.5337261439 50.1365859063
574 32 2 44.3491300988 14.9052976504 50.3217948831
575 32 2 45.3022812528 14.5435847537 50.5065018649
576 32 2 46.3195153026 14.4813414307 50.6930780369
577 33 1 61.2323342933 20.4496498999 31.9725190325
578 33 1 60.0936423146 23.9079632632 36.1272079884
579 33 2 60.8190257128 20.1071656554 31.8337308935
580 33 2 60.0421825388 19.4222184481 31.8052349719
581 33 2 59.3089638263 18.7436521562 32.07980394
582 33 2 58.6708619613 18.1447180412 32.6343794055
583 33 2 58.1706996838 17.6914091046 33.4203811328
584 33 2 57.8387269089 17.436445002 34.3681350008
585 33 2 57.689863528 17.4144667876 35.3932236131
586 33 2 57.7223395008 17.6388794745 36.4041807182
587 33 2 57.9178561895 18.1006302039 37.3108281135
588 33 2 58.2432542308 18.7690333886 38.0324951479
589 33 2 58.6535359234 19.5945676225 38.5053716357
590 33 2 59.0959666478 20.5133894243 38.6883239843
591 33 2 59.5148814864 21.4531524001 38.566644412
592 33 2 59.8567589317 22.3396014243 38.153391522
593 33 2 60.0750992286 23.1033407953 37.4882000464
594 33 2 60.1346627029 23.6861594682 36.6336682458