LAMMPS input file for bananas

648 atoms

2 atom types

0 53.5546360066 xlo xhi
0 53.5546360066 ylo yhi
0 53.5546360066 zlo zhi

Masses

 1 1
 2 1

Atoms

1 1 1 30.2357108287 41.3316051507 9.84777164916
2 1 1 30.6041573785 38.2822396613 5.25608260116
3 1 2 29.8541997942 41.1604738235 10.2118389334
4 1 2 29.0000607615 40.8416675151 10.7040371268
5 1 2 28.0329001553 40.533634988 10.9118022235
6 1 2 27.0424748646 40.2453548347 10.8148367258
7 1 2 26.1206622917 39.9840052716 10.4206185153
8 1 2 25.3530859733 39.7543098638 9.76371926402
9 1 2 24.8113112238 39.558106985 8.90265331863
10 1 2 24.546322148 39.394182254 7.91454427432
11 1 2 24.5838745763 39.2583792229 6.88809536518
12 1 2 24.9221484898 39.1439782261 5.91550440153
13 1 2 25.5319139097 39.0423088597 5.08406018588
14 1 2 26.3591951324 38.9435402656 4.46818637192
15 1 2 27.3301904698 38.8375771882 4.1226579474
16 1 2 28.3579990766 38.7149801298 4.07760864039
17 1 2 29.35054173 38.5678257357 4.33578431052
18 1 2 30.2189536044 38.3904289864 4.87229267118
19 2 1 14.4094163819 7.54043485812 16.4985819674
20 2 1 9.92306165039 5.44882241067 18.9512885651
21 2 2 14.4743039327 8.08783326684 16.5579635802
22 2 2 14.3720089015 9.11814023136 16.5960857082
23 2 2 13.983338845 10.0775382621 16.5520287331
24 2 2 13.3378621889 10.881260271 16.4479094272
25 2 2 12.4885545939 11.4587286236 16.3113190834
26 2 2 11.506970366 11.7599881011 16.1728086432
27 2 2 10.4767204731 11.7602591858 16.0631040594
28 2 2 9.48585162782 11.4621966473 16.0103057084
29 2 2 8.61882106601 10.8956475677 16.0373271153
30 2 2 7.94879849478 10.1149308596 16.1598064476
31 2 2 7.53099686946 9.19388624253 16.3846811382
32 2 2 7.39763988031 8.21914395 16.7095555567
33 2 2 7.55502484927 7.282228615 17.1229193647
34 2 2 7.98294874585 6.47121704448 17.6051966526
35 2 2 8.63654963943 5.86271025374 18.1305302311
36 2 2 9.45039574426 5.51485148868 18.6691384453
37 3 1 51.6725941532 23.8027706099 32.5967593195
38 3 1 48.3895357855 25.2282433943 36.8047928456
39 3 2 51.7784487753 24.2093247987 32.2349719806
40 3 2 51.7424139646 24.9945610687 31.5600234611
41 3 2 51.4076923927 25.7626238764 30.9505228427
42 3 2 50.8064626522 26.4587218683 30.4736366969
43 3 2 49.9951948432 27.0346230912 30.1844441405
44 3 2 49.0495034743 27.4530512064 30.1209165214
45 3 2 48.0572554024 27.691083128 30.3004564313
46 3 2 47.1105610033 27.742238401 30.7183115066
47 3 2 46.2973785573 27.6170698773 31.3480075932
48 3 2 45.6934970873 27.3422018518 32.1437617951
49 3 2 45.3556283911 26.9579033288 33.0446554628
50 3 2 45.3162379137 26.5144176099 33.9801867656
51 3 2 45.5805856079 26.0673827514 34.876696745
52 3 2 46.1262465041 25.6727603045 35.6640831316
53 3 2 46.9051546861 25.3817345686 36.2821899801
54 3 2 47.8479843713 25.2360472804 36.6862907225
55 4 1 8.66287839377 48.0554710625 27.3148142751
56 4 1 10.6189245914 43.1317648427 28.8797396391
57 4 2 8.78467435035 48.2003064382 26.7936904443
58 4 2 9.23142378205 48.4140216864 25.8836405835
59 4 2 9.92486522553 48.5226422716 25.1215444321
60 4 2 10.8001564671 48.4994782651 24.5676683788
61 4 2 11.77588017 48.3298515514 24.2633001071
62 4 2 12.761464847 48.0124336995 24.2269853331
63 4 2 13.6654402096 47.5593670454 24.452837413
64 4 2 14.4037744401 46.9951579512 24.9110738948
65 4 2 14.9075334671 46.354443115 25.5507311097
66 4 2 15.1291641223 45.678832529 26.3043093737
67 4 2 15.0468284843 45.0131168397 27.0939254038
68 4 2 14.6663943468 44.4011848002 27.8384111708
69 4 2 14.0209003853 43.8820229277 28.4607121486
70 4 2 13.1675447694 43.4861619866 28.8949106278
71 4 2 12.1824717033 43.2328941909 29.0922339391
72 4 2 11.1538310845 43.1285147706 29.0254999518
73 5 1 8.91674352228 43.8715525419 23.2533485005
74 5 1 6.48705679764 40.1034434953 20.0259706647
75 5 2 9.1951252262 43.6642251844 23.6856684998
76 5 2 9.51548156331 43.1586251889 24.5313578476
77 5 2 9.55777809629 42.5271983334 25.3516999352
78 5 2 9.32600233885 41.8117022224 26.0642975247
79 5 2 8.84912276147 41.0615571482 26.5965740012
80 5 2 8.17844839266 40.3293415636 26.8923885375
81 5 2 7.38295213826 39.6659996963 26.91715318
82 5 2 6.54298408533 39.1161981188 26.6609854486
83 5 2 5.7429478065 38.7142545096 26.1396090982
84 5 2 5.06360719992 38.4810096886 25.3929209405
85 5 2 4.57472507584 38.4219280321 24.4813543561
86 5 2 4.32870446282 38.5265994093 23.4803709536
87 5 2 4.35581221186 38.7696880382 22.4735824458
88 5 2 4.66142025373 39.1132417743 21.5451296648
89 5 2 5.22551596187 39.5101513469 20.7720133512
90 5 2 6.00452624984 39.9084442435 20.2170757413
91 6 1 46.4050047318 43.473488526 26.7964922356
92 6 1 45.3762914864 48.8977449935 26.6036661603
93 6 2 46.6350869281 43.2629330682 26.3381144764
94 6 2 46.8883264254 42.9812337927 25.3737673987
95 6 2 46.9023836394 42.8788490858 24.3428601392
96 6 2 46.6879766355 42.979199712 23.334192999
97 6 2 46.2766473821 43.2872276517 22.4345391517
98 6 2 45.7178867842 43.7889456535 21.7207355008
99 6 2 45.0746237198 44.4527121346 21.2526792009
100 6 2 44.417489241 45.2321152261 21.0678681925
101 6 2 43.8183787421 46.0702030915 21.1779833647
102 6 2 43.3438988867 46.9046749338 21.5678238738
103 6 2 43.0492965885 47.6735595468 22.1966926589
104 6 2 42.9734234025 48.3208638252 23.0021058709
105 6 2 43.1351943098 48.8016763859 23.9054881079
106 6 2 43.5318636676 49.0862611212 24.8193343533
107 6 2 44.139275467 49.162767565 25.6551858241
108 6 2 44.914065089 49.0383110314 26.3316927524
109 7 1 29.955153306 2.82602459215 34.0634984714
110 7 1 28.8734079457 6.75647292846 37.7916875643
111 7 2 30.4932346847 2.71226887762 33.9934295392
112 7 2 31.5175149075 2.7329919633 33.8389284384
113 7 2 32.4894594957 3.05545061862 33.6814668742
114 7 2 33.327117552 3.65158158404 33.5533775928
115 7 2 33.9607780374 4.4683771004 33.4843161353
116 7 2 34.3393237463 5.43271642452 33.4985578145
117 7 2 34.434890503 6.45803058949 33.6127850849
118 7 2 34.2454069073 7.45219293462 33.8345669815
119 7 2 33.7947831364 8.32591620434 34.1616692227
120 7 2 33.1307315967 9.00089084291 34.582257859
121 7 2 32.3204180651 9.4169227011 35.0759779059
122 7 2 31.4443397083 9.53741957201 35.6158086461
123 7 2 30.588987981 9.35272647295 36.1705264959
124 7 2 29.838965161 8.88100567129 36.7075509515
125 7 2 29.2692730777 8.16658124233 37.1959142146
126 7 2 28.9384768959 7.27589904831 37.6090838245
127 8 1 50.0831079281 34.9432121009 34.4933466476
128 8 1 49.8155393445 37.1661108812 29.4430873347
129 8 2 49.7570295104 34.5017414338 34.5718202329
130 8 2 48.9814977235 33.8170922176 34.6288808106
131 8 2 48.0541517013 33.3616614063 34.5510210495
132 8 2 47.060983296 33.1679734593 34.3284193667
133 8 2 46.0939838942 33.2446956734 33.9644470189
134 8 2 45.2427596477 33.5758481823 33.4753608207
135 8 2 44.5863641123 34.122260478 32.8888213801
136 8 2 44.1860927276 34.8251416985 32.2413719075
137 8 2 44.0798959013 35.6114392575 31.5751074
138 8 2 44.2789199311 36.4004973922 30.9338377947
139 8 2 44.7664910497 37.111408721 30.3590948102
140 8 2 45.4996351936 37.6703887345 29.8863464417
141 8 2 46.4129949745 38.0175010569 29.5417641474
142 8 2 47.4247868304 38.1121204858 29.3398373906
143 8 2 48.4442553789 37.9366358716 29.2820529636
144 8 2 49.3799455274 37.4980553261 29.3567594705
145 9 1 39.8112521343 18.0227930153 32.8088294688
146 9 1 45.1365641591 16.5633588077 32.6382578013
147 9 2 39.5795229598 18.0026039086 33.3120943868
148 9 2 39.2392977193 17.748773393 34.2572223498
149 9 2 39.0587119413 17.2406708998 35.141909099
150 9 2 39.0685388834 16.5309469765 35.8966576632
151 9 2 39.2821961929 15.6906294254 36.4638145891
152 9 2 39.6945229236 14.8026493089 36.8028249002
153 9 2 40.2822499429 13.9542820048 36.8939285739
154 9 2 41.0061208503 13.229192289 36.7399616151
155 9 2 41.8144700943 12.6998085144 36.3660975619
156 9 2 42.6479321482 12.420720961 35.8175529846
157 9 2 43.4448525203 12.4237060767 35.1554661166
158 9 2 44.1469073953 12.7148301397 34.4513242676
159 9 2 44.7044196945 13.2738963335 33.7804479463
160 9 2 45.0808870085 14.0562856322 33.2151255976
161 9 2 45.2563086945 14.997023706 32.8180247038
162 9 2 45.2290088815 16.0167031573 32.6364798113
163 10 1 28.6045162894 7.68184487717 32.3306237
164 10 1 24.6623773286 6.09400560852 35.8599717888
165 10 2 28.6961153554 8.22836783794 32.3131923342
166 10 2 28.6338240507 9.26087646522 32.2540675583
167 10 2 28.2724277815 10.2291152788 32.1808804861
168 10 2 27.6429521572 11.0496975119 32.118789839
169 10 2 26.8008575044 11.6526949002 32.0919429287
170 10 2 25.8209838056 11.9880114566 32.1212746945
171 10 2 24.790729235 12.0299495862 32.2225995395
172 10 2 23.8020840488 11.7795523537 32.4051698903
173 10 2 22.9432459189 11.2645084108 32.6708328624
174 10 2 22.2905809511 10.5366282493 33.0138619012
175 10 2 21.9016631185 9.6671218136 33.421478742
176 10 2 21.8100265475 8.74010790441 33.8750181142
177 10 2 22.0221089724 7.84494697496 34.3516290317
178 10 2 22.5166649527 7.06809616452 34.8263575982
179 10 2 23.2467023381 6.48522896121 35.2744214891
180 10 2 24.143765478 6.15433776586 35.6734687934
181 11 1 16.3705823142 7.70526206303 36.3742431635
182 11 1 12.2616522736 4.97638480013 38.8617949452
183 11 2 16.4535361736 8.2214462699 36.5587807202
184 11 2 16.376824978 9.20700508712 36.8690051896
185 11 2 16.0034575863 10.1388460197 37.1253629052
186 11 2 15.364415108 10.9299705739 37.323344374
187 11 2 14.5148942268 11.5062061775 37.4637609419
188 11 2 13.52927617 11.8129668122 37.5526708417
189 11 2 12.4943470588 11.8202283825 37.6008270015
190 11 2 11.5013875854 11.5252653322 37.6226969435
191 11 2 10.6378530215 10.9528990717 37.6351441088
192 11 2 9.97940190421 10.1532355724 37.6558907991
193 11 2 9.58299996268 9.1970983415 37.7019028368
194 11 2 9.48172784408 8.16957304867 37.7878431752
195 11 2 9.68176590105 7.16225219461 37.9247354099
196 11 2 10.161830869 6.26488669942 38.1189590072
197 11 2 10.8751157789 5.55720534614 38.3716678331
198 11 2 11.7535562874 5.10164771524 38.6786849811
199 12 1 7.1733274485 29.3349540704 44.3614659487
200 12 1 8.53825630993 30.671252174 49.54502338
201 12 2 6.64457473342 29.432877414 44.2265097591
202 12 2 5.61191919522 29.4974405424 44.1726195647
203 12 2 4.60159316003 29.4173263409 44.3877312299
204 12 2 3.70231858754 29.2163782686 44.8614137467
205 12 2 2.99269539344 28.9294534689 45.5596680649
206 12 2 2.53403727715 28.5992456341 46.4280260149
207 12 2 2.36478314205 28.2723935895 47.3965149358
208 12 2 2.49699349211 27.995230289 48.3860354962
209 12 2 2.91525114925 27.8095596905 49.3155713869
210 12 2 3.57806648788 27.7488464364 50.1095737414
211 12 2 4.42165910336 27.8351656412 50.7048472123
212 12 2 5.36577122549 28.0771908039 51.056310059
213 12 2 6.32098299966 28.4694032415 51.1411032278
214 12 2 7.19686286766 28.9925951023 50.9606738931
215 12 2 7.9102101625 29.6156201102 50.5406435518
216 12 2 8.39263862681 30.2982324647 49.9284726921
217 13 1 5.00794428623 22.4296739559 8.56281198656
218 13 1 8.66195247241 25.1739651639 5.45876929966
219 13 2 4.55285018154 22.7166965997 8.69656155068
220 13 2 3.85771164371 23.4166126772 9.0133420879
221 13 2 3.41681552982 24.2805234949 9.37764790315
222 13 2 3.26703784718 25.2395066107 9.74009519678
223 13 2 3.41871993616 26.2159739966 10.0514695684
224 13 2 3.8547258847 27.1307439803 10.2672117779
225 13 2 4.53200442085 27.9102584426 10.3514792014
226 13 2 5.38551292117 28.4932874438 10.2804127899
227 13 2 6.33414587202 28.8365101686 10.0443117588
228 13 2 7.28812742034 28.918463503 9.64851778756
229 13 2 8.15719420268 28.7414983395 9.1129281406
230 13 2 8.85882260957 28.3315652998 8.4701820844
231 13 2 9.32575059195 27.7358494047 7.76268590576
232 13 2 9.51210841713 27.0184692858 7.0387476921
233 13 2 9.39759957237 26.2546329435 6.34817417836
234 13 2 8.98935073774 25.5237827389 5.73773099628
235 14 1 16.123759859 26.1523732208 41.2274468158
236 14 1 17.0302530228 21.5658965497 44.1703183643
237 14 2 16.0725566987 26.615946241 41.5272131904
238 14 2 15.8223839105 27.3539938425 42.2099644813
239 14 2 15.4032102038 27.8642897442 43.0083011944
240 14 2 14.86637894 28.0975485913 43.8632003204
241 14 2 14.2739576526 28.0297362157 44.7104833375
242 14 2 13.6930807568 27.6642602867 45.4866659117
243 14 2 13.1898304276 27.0316597109 46.1347443243
244 14 2 12.823213386 26.1868210925 46.6093912087
245 14 2 12.639782594 25.2039759661 46.8810870185
246 14 2 12.6693940763 24.1699347904 46.9388106553
247 14 2 12.9224856239 23.1761744073 46.7910440122
248 14 2 13.3891254173 22.3105001723 46.4649988724
249 14 2 14.039917285 21.6490427306 46.0041366273
250 14 2 14.8286800861 21.2493189125 45.4642068873
251 14 2 15.6966569978 21.1449892283 44.9081660536
252 14 2 16.5778710432 21.3427898022 44.4004390104
253 15 1 5.22468412097 40.5157701625 -1.556226203
254 15 1 7.37388000898 36.8975547025 2.02252567174
255 15 2 5.19753064265 41.0381179648 -1.37238646273
256 15 2 5.04437472237 41.9147875963 -0.841873849743
257 15 2 4.78466843505 42.5934976586 -0.103392091809
258 15 2 4.45850286321 43.0139068107 0.785608569459
259 15 2 4.11202667551 43.1392171491 1.75395849672
260 15 2 3.79323979896 42.9595282385 2.7232555791
261 15 2 3.54761835388 42.4927395098 3.61501137509
262 15 2 3.41396962705 41.7829187752 4.35780512418
263 15 2 3.42089489126 40.8962855645 4.89379355829
264 15 2 3.58418247575 39.9151753921 5.18398316106
265 15 2 3.90536870218 38.930535095 5.21178432264
266 15 2 4.37159785302 38.0336332718 4.9845234383
267 15 2 4.95679393584 37.3077413934 4.53277512706
268 15 2 5.62403744034 36.8205438315 3.90757543692
269 15 2 6.32893045304 36.6179686088 3.17577004547
270 15 2 7.02364340838 36.7200011824 2.41392145501
271 16 1 47.1580643679 9.75328787737 9.965224944
272 16 1 44.6359485355 11.5662216335 14.5336156875
273 16 2 46.8236751918 9.67141306077 9.53064240708
274 16 2 46.0712771146 9.39601580036 8.87375315193
275 16 2 45.2037628134 8.99657203659 8.47211447356
276 16 2 44.2879860257 8.52422569965 8.36398573403
277 16 2 43.3951994858 8.0367655944 8.56087364896
278 16 2 42.5945604281 7.5933581053 9.04648348113
279 16 2 41.9468270905 7.24915433859 9.77820426226
280 16 2 41.4988207632 7.05026324634 10.6909926689
281 16 2 41.279158153 7.02954891876 11.7033015474
282 16 2 41.2956430475 7.20363511017 12.7245127192
283 16 2 41.5345550202 7.57139002824 13.6631965854
284 16 2 41.961900011 8.11402949384 14.4354456905
285 16 2 42.5265087938 8.79682906875 14.9725226627
286 16 2 43.1647009148 9.57228909541 15.2271254414
287 16 2 43.8060889956 10.3844641637 15.1776987337
288 16 2 44.3799943544 11.1740623858 14.8303987221
289 17 1 31.5553015501 17.4637913336 15.1047158512
290 17 1 29.5687600923 13.2607779668 12.1203695683
291 17 2 31.7103304361 17.9069360088 14.8098083584
292 17 2 32.1188841383 18.5760709605 14.1324662734
293 17 2 32.6371803868 18.9859895291 13.3344776913
294 17 2 33.2044089045 19.0999093287 12.4749870869
295 17 2 33.7552993688 18.9080274701 11.6187446797
296 17 2 34.2260706269 18.4284140677 10.8302046249
297 17 2 34.5602441777 17.7053651973 10.1676501893
298 17 2 34.7137920358 16.8053654269 9.67788138705
299 17 2 34.659149765 15.811027926 9.39194928373
300 17 2 34.3877289031 14.8135644961 9.32232577462
301 17 2 33.9106997767 13.904471859 9.46176680478
302 17 2 33.2579733565 13.1671919747 9.78397264529
303 17 2 32.4754749518 12.6695065299 10.2459850432
304 17 2 31.6209582414 12.4573588189 10.7921027517
305 17 2 30.7587411802 12.5506661343 11.3589585495
306 17 2 29.9538435896 12.9415043599 11.881294994
307 18 1 35.1659303172 40.1205978637 8.74838435933
308 18 1 33.6736457781 40.5414366282 14.0506454478
309 18 2 35.5668823357 39.7513082477 8.64717049417
310 18 2 36.4266750159 39.1733813602 8.63278053532
311 18 2 37.356739544 38.7752241304 8.85616541642
312 18 2 38.2676766407 38.5789358219 9.30906111851
313 18 2 39.0718304409 38.5882158857 9.96228432474
314 18 2 39.6912780917 38.7880267648 10.7683924017
315 18 2 40.0649322118 39.1459645281 11.6660076686
316 18 2 40.1541088435 39.6152124012 12.5854118088
317 18 2 39.9460533918 40.1388079909 13.4549005083
318 18 2 39.4551031715 40.6548352549 14.207319112
319 18 2 38.7213805996 41.1020679836 14.786183591
320 18 2 37.807136144 41.4255504053 15.1508289112
321 18 2 36.7910743599 41.581606258 15.2801155421
322 18 2 35.7611801798 41.5418197642 15.1743562689
323 18 2 34.8066993221 41.2956256525 14.8552876824
324 18 2 34.0100037825 40.8512721546 14.3640889475
325 19 1 24.8151806118 35.7011160782 38.9154141565
326 19 1 22.0979608019 31.3375867505 40.9388566126
327 19 2 24.7658094336 36.1658789514 39.2136414967
328 19 2 24.4436327273 36.9862969843 39.75822063
329 19 2 23.8497564931 37.672773379 40.2577315801
330 19 2 23.0386992485 38.1559087942 40.6845996249
331 19 2 22.0847749792 38.3848378753 41.017871249
332 19 2 21.0753196186 38.3318654957 41.2451240007
333 19 2 20.1027306106 37.9949910934 41.363598765
334 19 2 19.2560451296 37.3980910171 41.3804512498
335 19 2 18.6128245799 36.5887422605 41.3120997622
336 19 2 18.2320850814 35.6338859468 41.1827287234
337 19 2 18.1489183075 34.6137258241 41.022084324
338 19 2 18.3712929731 33.6144179083 40.8627632375
339 19 2 18.8793285077 32.7202175921 40.7372415212
340 19 2 19.627107116 32.0057999916 40.6749145099
341 19 2 20.5468590621 31.5294535088 40.6994175102
342 19 2 21.5551397005 31.3277669997 40.8264715051
343 20 1 5.3291634115 27.7575880098 17.3615801205
344 20 1 1.78416331034 29.0368493752 13.3224644125
345 20 2 5.33516847277 28.1118700437 17.7879951387
346 20 2 5.36948889436 28.9355738031 18.4155174384
347 20 2 5.41527924759 29.9063358333 18.7746474084
348 20 2 5.44974574922 30.9401176181 18.8342904539
349 20 2 5.45112675477 31.947136559 18.590649413
350 20 2 5.40067627433 32.840049419 18.0675706575
351 20 2 5.2843726194 33.5419134258 17.3143705599
352 20 2 5.09419644233 33.9931993992 16.4013404382
353 20 2 4.8288616784 34.157217677 15.4133396899
354 20 2 4.49393276721 34.0234622797 14.4420610845
355 20 2 4.10131746888 33.6085685024 13.577673213
356 20 2 3.66818150353 32.9547966521 12.9006018619
357 20 2 3.21538394178 32.1261801338 12.4741994172
358 20 2 2.76557595621 31.2026889765 12.3389704643
359 20 2 2.34113622752 30.2729407791 12.5088799028
360 20 2 1.9621311876 29.4261234529 12.9700800838
361 21 1 34.6044200023 32.9706119687 47.8813984609
362 21 1 30.9362204885 30.2133575829 50.9570856427
363 21 2 34.6412938398 33.5126815833 47.991772557
364 21 2 34.4761243944 34.5188290884 48.1757189172
365 21 2 34.0193506229 35.4355345331 48.3321122054
366 21 2 33.3107315569 36.1794645458 48.4658177274
367 21 2 32.4129812534 36.6830337739 48.5837687188
368 21 2 31.4060525765 36.9005651079 48.694334398
369 21 2 30.3798497068 36.8124530277 48.8065571352
370 21 2 29.4260336163 36.4269505935 48.929328264
371 21 2 28.6296674157 35.7794172017 49.0705776606
372 21 2 28.0614630786 34.9290956697 49.2365509562
373 21 2 27.7713362351 33.9537124122 49.4312402647
374 21 2 27.7838564946 32.9423928858 49.6560203123
375 21 2 28.0960079921 31.987538042 49.9095231346
376 21 2 28.6774642762 31.1764022273 50.1877627633
377 21 2 29.4733524838 30.5831401829 50.4844985362
378 21 2 30.4092548552 30.2620480382 50.7918039167
379 22 1 33.0296944032 43.5604214802 31.4636250947
380 22 1 30.2622048655 45.3151940468 35.9110699746
381 22 2 32.7476265783 43.5879084563 30.9871129791
382 22 2 32.0544233466 43.5268122572 30.2195281008
383 22 2 31.1935323356 43.3388049656 29.6745786201
384 22 2 30.2337727999 43.0575010311 29.4040610767
385 22 2 29.252975596 42.7250186434 29.434758273
386 22 2 28.3308891077 42.3881407708 29.7659980928
387 22 2 27.5419103939 42.0940510188 30.3697147632
388 22 2 26.9483040956 41.8860329697 31.1930069745
389 22 2 26.5945271805 41.7995250005 32.1629596933
390 22 2 26.5031768088 41.858890169 33.193290173
391 22 2 26.6729306627 42.0751955862 34.1922123956
392 22 2 27.0786674722 42.4452036791 35.0708031215
393 22 2 27.6737567517 42.9516672868 35.7511070057
394 22 2 28.3943090439 43.5649016925 36.1732420185
395 22 2 29.1649992732 44.2454903069 36.3008575332
396 22 2 29.9059324252 44.9478773844 36.1244475879
397 23 1 45.6807036689 32.8289339178 46.4492610875
398 23 1 43.7699283786 34.3273801489 41.4872466031
399 23 2 45.4610842227 32.3624200169 46.6530101173
400 23 2 44.8467343491 31.5952676641 46.9808843489
401 23 2 44.0161954436 31.0161471919 47.200599201
402 23 2 43.0436599735 30.6670194759 47.2763263987
403 23 2 42.0162630134 30.5688821671 47.1853617566
404 23 2 41.0261401161 30.7198558113 46.9201946051
405 23 2 40.1620294033 31.0953551571 46.4891923679
406 23 2 39.5011833228 31.6503300354 45.9158378933
407 23 2 39.1023272944 32.3233715618 45.2365890556
408 23 2 39.000307045 33.0423093928 44.4975557173
409 23 2 39.2029125136 33.7307898592 43.7502969384
410 23 2 39.6901678192 34.3152353992 43.0471215057
411 23 2 40.4161520088 34.7315509566 42.4363201269
412 23 2 41.3131846298 34.9309660737 41.9577638617
413 23 2 42.2979946224 34.8844801881 41.6392699808
414 23 2 43.2793102537 34.5855059567 41.4940664968
415 24 1 2.97078502478 31.3842763606 28.2799065746
416 24 1 2.77891696389 25.8749849932 27.9208991407
417 24 2 3.38765668298 31.5840357198 28.586004283
418 24 2 4.08831306592 31.8028718161 29.3171960548
419 24 2 4.64323488554 31.7938819991 30.1920851726
420 24 2 5.01612879881 31.5458735967 31.1263720519
421 24 2 5.18729281983 31.0694398418 32.0303431612
422 24 2 5.15541210321 30.3959943279 32.81704817
423 24 2 4.93767878871 29.5749077437 33.4102252398
424 24 2 4.56822498362 28.6690078667 33.7512520863
425 24 2 4.09501171248 27.7488529796 33.8044892442
426 24 2 3.57545739779 26.8863006711 33.5605285092
427 24 2 3.07120432433 26.1479582086 33.0370504703
428 24 2 2.64250010965 25.5891114643 32.2772129719
429 24 2 2.34270629473 25.2486857553 31.3457173915
430 24 2 2.21343458216 25.1456979051 30.3229112817
431 24 2 2.28075404068 25.2775229111 29.297464906
432 24 2 2.55281497921 25.6201332063 28.358289181
433 25 1 22.2118656776 9.44223010571 34.5272690528
434 25 1 18.7975644379 11.9094046195 38.1012847249
435 25 2 22.7383735569 9.61438736577 34.5503540882
436 25 2 23.6249217026 10.1497790672 34.5793044348
437 25 2 24.3162529685 10.9210938958 34.6034814304
438 25 2 24.7518350415 11.8604635496 34.6395774463
439 25 2 24.8944464639 12.8847019785 34.7031984669
440 25 2 24.7335692698 13.9028875702 34.8074416458
441 25 2 24.2863476693 14.8246504126 34.9617015357
442 25 2 23.5960254002 15.5684092693 35.1708137998
443 25 2 22.7280041762 16.0688074916 35.4346144537
444 25 2 21.7638824959 16.2826701019 35.7479548127
445 25 2 20.7940181575 16.1929390782 36.1011707803
446 25 2 19.9092923875 15.8102281463 36.4809637049
447 25 2 19.1928262589 15.171855368 36.8716125162
448 25 2 18.7124044286 14.3384416989 37.256406659
449 25 2 18.5142967464 13.3883855505 37.6191692153
450 25 2 18.619040882 12.4107169845 37.9457313875
451 26 1 7.32214917401 22.8886598858 30.2979619625
452 26 1 4.49519044314 24.0957392589 25.7078361709
453 26 2 7.29351161083 23.2719526683 30.6975218715
454 26 2 7.29898363235 24.1352756225 31.2703163765
455 26 2 7.36502767627 25.1246612779 31.5706565507
456 26 2 7.46734284617 26.1556708861 31.5697592953
457 26 2 7.5783222295 27.1400717863 31.2662984983
458 26 2 7.66956919377 27.9938795771 30.6865259058
459 26 2 7.71448566378 28.6450130698 29.8818783453
460 26 2 7.69069646501 29.0398642964 28.9242893969
461 26 2 7.58208876107 29.1481847325 27.8996328394
462 26 2 7.38028069557 28.9658423692 26.8998954846
463 26 2 7.08538537599 28.5151983351 26.0147928261
464 26 2 6.70600056423 27.843068739 25.3235917108
465 26 2 6.25842501356 27.0164575065 24.8878853784
466 26 2 5.76517288086 26.1164491517 24.7459794023
467 26 2 5.25292162137 25.2308181401 24.9094002381
468 26 2 4.75008040997 24.4460284808 25.3618446191
469 27 1 17.818189931 36.3472163279 14.2939556817
470 27 1 19.3043548077 41.1586847418 12.0225955777
471 27 2 18.1827730472 35.9348993453 14.2272065594
472 27 2 18.8547603896 35.2286435815 13.8763706735
473 27 2 19.4748366855 34.6701362727 13.2623470709
474 27 2 20.0032178581 34.3195322433 12.4429935684
475 27 2 20.4084775965 34.2180364892 11.4948832544
476 27 2 20.670411779 34.3841484532 10.5063250565
477 27 2 20.7818800256 34.8119758494 9.56931461884
478 27 2 20.749456524 35.4717717301 8.77114914506
479 27 2 20.5928308101 36.3126458401 8.18647049133
480 27 2 20.3430131198 37.2672031275 7.87046176084
481 27 2 20.0395078882 38.2576866229 7.85381751134
482 27 2 19.7267130265 39.2030647787 8.13994602826
483 27 2 19.4498731709 40.0264172787 8.70465866865
484 27 2 19.2509557547 40.661946119 9.49837459126
485 27 2 19.1648257893 41.0609729204 10.4506399178
486 27 2 19.2160680113 41.1963758321 11.4765494154
487 28 1 13.8612112183 11.3003477618 10.3679119703
488 28 1 11.9705972011 6.30044157719 8.97345585978
489 28 2 13.7723340184 11.4448307778 10.8957444148
490 28 2 13.3851941421 11.6498849512 11.834640316
491 28 2 12.7451559039 11.7402861538 12.64434933
492 28 2 11.9134385678 11.6911414932 13.2602073382
493 28 2 10.968732435 11.4902773097 13.635219223
494 28 2 10.0000264339 11.1393487724 13.7443423472
495 28 2 9.09849701634 10.6536890153 13.5867691234
496 28 2 8.34919766844 10.0609115629 13.1860006237
497 28 2 7.82330651217 9.39839343139 12.5877045195
498 28 2 7.57163861002 8.70986831336 11.8555525954
499 28 2 7.62001430777 8.04144036881 11.0654172361
500 28 2 7.96690577903 7.43738195405 10.2984558616
501 28 2 8.58357628253 6.9360983148 9.6337136452
502 28 2 9.41669943923 6.56662705068 9.14091875689
503 28 2 10.3932197893 6.34599141564 8.87412682747
504 28 2 11.427011602 6.27764869382 8.86679392202
505 29 1 33.9405314619 23.4357707076 8.31639465991
506 29 1 31.090723748 19.6601116109 11.1696358766
507 29 2 34.0477288252 23.9048113287 8.59187825137
508 29 2 34.0173498802 24.7757002027 9.1523063913
509 29 2 33.6935440737 25.5638238956 9.74176449464
510 29 2 33.109436179 26.1907467891 10.3242039027
511 29 2 32.3218768088 26.592726287 10.8642156922
512 29 2 31.4062606339 26.7265227822 11.3302581037
513 29 2 30.4496543608 26.5733408318 11.697531489
514 29 2 29.5428608339 26.1405423109 11.9502387327
515 29 2 28.7721425987 25.4609753978 12.0830251169
516 29 2 28.2113593019 24.5899805502 12.1014663894
517 29 2 27.9152355813 23.6003463703 12.0215605497
518 29 2 27.9143730619 22.5756751184 11.8682696733
519 29 2 28.2124610995 21.6027625903 11.6732446859
520 29 2 28.7859405053 20.7636869124 11.4719404658
521 29 2 29.5861509037 20.12832734 11.3003842265
522 29 2 30.5437659949 19.7479949497 11.1918917328
523 30 1 38.5214368768 43.8889725337 9.03321073623
524 30 1 36.7869734812 48.1709237032 12.0621580737
525 30 2 38.18528029 43.7466146488 8.6159403565
526 30 2 37.3918425614 43.4841479921 8.00355335779
527 30 2 36.4429433525 43.2618440563 7.65195520272
528 30 2 35.4190846723 43.1171317738 7.58698005785
529 30 2 34.4076008853 43.0803678051 7.80833716848
530 30 2 33.4946984176 43.1720696105 8.28963736008
531 30 2 32.7575982713 43.4010453384 8.98079834107
532 30 2 32.2574975372 43.763590986 9.81260956983
533 30 2 32.0339914427 44.2438280094 10.7030406106
534 30 2 32.1014643534 44.8151506101 11.5647179883
535 30 2 32.4477786761 45.4426507831 12.3128890477
536 30 2 33.0353811681 46.0863000875 12.8731469307
537 30 2 33.8047258153 46.7045981322 13.1882125634
538 30 2 34.6797012916 47.2583552261 13.2231554897
539 30 2 35.5745683032 47.7142644127 12.9685776899
540 30 2 36.4017744963 48.0479373112 12.4414701846
541 31 1 12.1223140817 14.2870493797 14.7413991359
542 31 1 10.2845940555 9.1935406719 15.8354490483
543 31 2 12.220401442 14.6008856889 15.1877927165
544 31 2 12.1869412004 15.1200411902 16.083788246
545 31 2 11.8815801306 15.4994782606 16.9982455374
546 31 2 11.3395723825 15.6917857952 17.8600433236
547 31 2 10.6177418186 15.6666090458 18.6028601109
548 31 2 9.78930267014 15.4134163758 19.1712192054
549 31 2 8.93718625606 14.9424591898 19.5255452657
550 31 2 8.1464820147 14.2838375466 19.6457714896
551 31 2 7.49668182904 13.4847566181 19.5331686489
552 31 2 7.05443455397 12.6052240652 19.2102292627
553 31 2 6.86747115131 11.7125804989 18.7186174638
554 31 2 6.96025414024 10.8753615642 18.1153714248
555 31 2 7.33174790404 10.1570510992 17.4677044807
556 31 2 7.95551308379 9.61029475249 16.8468788135
557 31 2 8.78211645525 9.27210147357 16.3217100944
558 31 2 9.74363663517 9.16047024564 15.9522951194
559 32 1 41.69246284 41.4583467702 36.4873782011
560 32 1 38.4351273467 37.4343732668 38.4149138791
561 32 2 42.2277851452 41.4109624497 36.6236365726
562 32 2 43.1427212852 41.2947090472 37.0956821395
563 32 2 43.8757788524 41.135887723 37.8104215335
564 32 2 44.3628333441 40.9299962682 38.701396641
565 32 2 44.5621827808 40.67682279 39.6860859337
566 32 2 44.4583487295 40.3804650259 40.6734260861
567 32 2 44.063487122 40.0489568457 41.572112154
568 32 2 43.4162802738 39.6935359855 42.2989197757
569 32 2 42.5784110949 39.3276197584 42.7862908508
570 32 2 41.6289408568 38.9655821022 42.9884912801
571 32 2 40.6571029695 38.6214434331 42.8857795064
572 32 2 39.7541695944 38.3075927226 42.486205905
573 32 2 39.0051324309 38.0336582757 41.8248790133
574 32 2 38.4809559497 37.8056301369 40.9607654817
575 32 2 38.2321091716 37.6253141129 39.9713154204
576 32 2 38.2839655508 37.4901671792 38.9454030297
577 33 1 28.4500522 22.5394120838 2.7270905391
578 33 1 22.9585677262 23.0232560239 3.0841400832
579 33 2 28.6660506416 22.1147307019 3.01059007195
580 33 2 28.9416202006 21.408816923 3.71712893576
581 33 2 29.0179691359 20.8616885022 4.59363982699
582 33 2 28.8749066329 20.5095584933 5.55747984909
583 33 2 28.5122406431 20.3708663658 6.51804628866
584 33 2 27.949795389 20.4445972969 7.38503481056
585 33 2 27.225604439 20.7103746699 8.07667045678
586 33 2 26.3924440494 21.1303173479 8.52716121521
587 33 2 25.5130227495 21.6524924389 8.69269478577
588 33 2 24.6542656273 22.2156488393 8.55543195442
589 33 2 23.8812142859 22.7548001089 8.12513258984
590 33 2 23.2510984756 23.207147811 7.4382660575
591 33 2 22.8081197553 23.5178054221 6.55468713448
592 33 2 22.579422638 23.6448010916 5.5521804065
593 33 2 22.5726204416 23.5629032642 4.51937041082
594 33 2 22.7751013548 23.2659204685 3.54764374658