LAMMPS input file for bananas

4320 atoms

2 atom types

0 80.0 xlo xhi
0 80.0 ylo yhi
0 80.0 zlo zhi

Masses

 1 1
 2 1

Atoms

1 1 1 16.4660436092 7.19866979828 9.46517426446
2 1 1 14.1736941745 12.1019666019 10.5700749775
3 1 2 16.995376082 7.14763583504 9.62196793741
4 1 2 18.010465493 7.25542071675 9.79924150569
5 1 2 18.9776873377 7.62581844083 9.82639735992
6 1 2 19.8089462123 8.23461193765 9.71763535919
7 1 2 20.4285393745 9.03585500006 9.49954391184
8 1 2 20.7800568461 9.96606015736 9.20867651302
9 1 2 20.8315230313 10.9499853886 8.88821999137
10 1 2 20.5783112073 11.9074922317 8.58405814498
11 1 2 20.0435652374 12.76085019 8.34058955585
12 1 2 19.27609007 13.4418216593 8.19668077778
13 1 2 18.3459032974 13.8978816033 8.1821237539
14 1 2 17.3378532404 14.0970050698 8.3149203607
15 1 2 16.3438852496 14.0305861801 8.59964158503
16 1 2 15.4546611332 13.7142225313 9.02701089095
17 1 2 14.751295575 13.1862935174 9.57474975112
18 1 2 14.297962748 12.5044621499 10.2096082751
19 2 1 26.9558713879 67.23126702 34.2048382561
20 2 1 23.6784553022 70.0412513776 37.651651679
21 2 2 27.3269431388 66.9017023845 34.451970801
22 2 2 28.069983389 66.4795271442 35.037726095
23 2 2 28.8091077999 66.3364354908 35.7495335795
24 2 2 29.4668227215 66.4786305955 36.5373417067
25 2 2 29.9730547608 66.8863125039 37.3441716734
26 2 2 30.2715377849 67.5154828493 38.1113108863
27 2 2 30.3249414281 68.3019551857 38.7836644586
28 2 2 30.1182736554 69.1672054112 39.314776961
29 2 2 29.6602472464 70.0255290298 39.6710667103
30 2 2 28.9824856482 70.7918528873 39.8348866501
31 2 2 28.1366405834 71.3894893617 39.8061328325
32 2 2 27.1896841333 71.7571262352 39.6022538931
33 2 2 26.2178044115 71.8544151389 39.2566606541
34 2 2 25.2994612215 71.6656491986 38.8156808174
35 2 2 24.5082346548 71.2011946748 38.3343363185
36 2 2 23.9061184626 70.4965461054 37.8713282237
37 3 1 43.1665286034 64.2299430084 17.3502115159
38 3 1 43.2028398498 58.7116307578 17.0954519043
39 3 2 43.0146968486 64.4401618596 17.8402490051
40 3 2 42.5486010684 64.6863252658 18.7322177895
41 3 2 41.8905930858 64.7123054797 19.5320931139
42 3 2 41.1088893699 64.5034314349 20.1792105261
43 3 2 40.2829809255 64.0664384028 20.6268290496
44 3 2 39.4963879 63.4288540911 20.8463914981
45 3 2 38.8290469455 62.6364895662 20.8301273872
46 3 2 38.3500252067 61.7492636973 20.591761193
47 3 2 38.111225035 60.8357417117 20.1652614028
48 3 2 38.142653228 59.9668856573 19.6017443785
49 3 2 38.4496859902 59.2095864019 18.9648152366
50 3 2 39.0125789063 58.6205667091 18.3247704118
51 3 2 39.7882665915 58.2412111102 17.7521903251
52 3 2 40.714287987 58.0937938148 17.3115061669
53 3 2 41.7144795178 58.1794484758 17.0551271662
54 3 2 42.7059171993 58.4780648605 17.0186636296
55 4 1 10.264086953 9.75440440837 70.2449859939
56 4 1 8.76169497374 6.45580500428 74.4139248725
57 4 2 9.95396000839 10.2099235048 70.1841154837
58 4 2 9.19585487732 10.9082715534 70.0790601437
59 4 2 8.2644200677 11.356586925 70.0091134912
60 4 2 7.24119020973 11.5189039421 69.9989225689
61 4 2 6.21606680693 11.3853249128 70.0676878446
62 4 2 5.27912395436 10.972922279 70.2274131396
63 4 2 4.51239832564 10.324182509 70.4818115125
64 4 2 3.98241174936 9.5031335691 70.8259668241
65 4 2 3.73410792224 8.58950894624 71.24678183
66 4 2 3.78675591127 7.67148015326 71.7241719594
67 4 2 4.1321938298 6.83762013133 72.2328959705
68 4 2 4.73557277163 6.16883006315 72.7448566217
69 4 2 5.53853319574 5.73096544629 73.2316616605
70 4 2 6.46452424241 5.56883354066 73.6672117011
71 4 2 7.42578113951 5.70210930652 74.0300791138
72 4 2 8.3313247269 6.12354208442 74.3054610962
73 5 1 6.51789578176 76.6279676896 16.430021766
74 5 1 1.65023291225 76.2103196873 13.851374951
75 5 2 6.91951591284 76.3057168199 16.2245047708
76 5 2 7.50775484292 75.5344031908 15.8604989221
77 5 2 7.83559283074 74.606756166 15.5357786388
78 5 2 7.86969003341 73.6083463048 15.2610694453
79 5 2 7.60348029552 72.6311940098 15.0425384886
80 5 2 7.05776963663 71.7653821133 14.8812324199
81 5 2 6.27883983821 71.0908450678 14.7729819947
82 5 2 5.33422998297 70.6700831345 14.7087820882
83 5 2 4.30658044795 70.5424656512 14.6756124887
84 5 2 3.2861004551 70.7206426227 14.6576246552
85 5 2 2.36234574171 71.1893917067 14.6375862688
86 5 2 1.61605579441 71.9070056893 14.5984519134
87 5 2 1.1117946607 72.8090939862 14.5249167194
88 5 2 0.892066108634 73.8144516726 14.4048113615
89 5 2 0.97343952191 74.8324610947 14.2302112605
90 5 2 1.34503964487 75.771351427 13.9981588874
91 6 1 15.5040649102 67.5253541326 11.9634160867
92 6 1 20.6094849507 69.2399611045 13.1933755183
93 6 2 15.1076402166 67.7078716599 12.3053464928
94 6 2 14.5117364499 67.9692205841 13.1116004552
95 6 2 14.1563678901 68.1214272839 14.0728477274
96 6 2 14.0797900558 68.1685691487 15.1050121964
97 6 2 14.294847436 68.1242999465 16.1175538361
98 6 2 14.7878027496 68.0106053199 17.0217211889
99 6 2 15.5195890615 67.8557988533 17.7386408238
100 6 2 16.4293706293 67.6919413655 18.2065064388
101 6 2 17.4400879191 67.5519186517 18.3862123401
102 6 2 18.4654813754 67.466444031 18.2649178218
103 6 2 19.4179537495 67.4612589098 17.8572175615
104 6 2 20.2165543544 67.5547865212 17.2038113549
105 6 2 20.7943575038 67.7564526964 16.3677944378
106 6 2 21.1045626089 68.0658267257 15.4289065244
107 6 2 21.1247599278 68.4726606163 14.4762637451
108 6 2 20.858973153 68.9578231695 13.6002359496
109 7 1 63.0748422953 6.73088539353 55.8252269576
110 7 1 58.0660193131 8.99305463227 56.3840415332
111 7 2 63.4980074648 7.08620967182 55.8705864613
112 7 2 64.166037202 7.87483315269 55.7980655202
113 7 2 64.6161884033 8.77143136986 55.5393658023
114 7 2 64.8012597068 9.70593022773 55.1320446655
115 7 2 64.6982110744 10.6048010886 54.627205913
116 7 2 64.3102638304 11.3977627114 54.0848418179
117 7 2 63.6666070458 12.0241871993 53.5683649879
118 7 2 62.8197370329 12.4386260698 53.138828476
119 7 2 61.8406724467 12.6149527631 52.8493609571
120 7 2 60.8124811241 12.548744008 52.7403241923
121 7 2 59.8227086728 12.2576829909 52.8356341612
122 7 2 58.9553989231 11.7799475812 53.1405811851
123 7 2 58.2834335571 11.17073052 53.641347728
124 7 2 57.8618891388 10.4972087497 54.3062678281
125 7 2 57.7230170319 9.83242041499 55.0887133656
126 7 2 57.8733037746 9.24860763125 55.9313440912
127 8 1 27.7355000683 68.3747848521 4.91514759948
128 8 1 28.3348396692 62.9096671256 4.3754519997
129 8 2 27.2525373137 68.5362916782 5.13433726797
130 8 2 26.2587869487 68.6962949433 5.37991653913
131 8 2 25.2241165297 68.6482931582 5.4044718631
132 8 2 24.2398632719 68.3831157519 5.21906291295
133 8 2 23.3927690007 67.9113871309 4.85388704417
134 8 2 22.7570738669 67.2625582928 4.35552688639
135 8 2 22.3877495546 66.4822224467 3.78270446123
136 8 2 22.3154887596 65.6279593139 3.20092882695
137 8 2 22.543907632 64.7640868904 2.6765251029
138 8 2 23.049216174 63.9557990333 2.27058911214
139 8 2 23.7823866344 63.263223215 2.03341866049
140 8 2 24.6736222571 62.735940065 1.99992902594
141 8 2 25.6387190691 62.4084642276 2.18647052441
142 8 2 26.5867408472 62.2970984449 2.58933822212
143 8 2 27.428307712 62.3984476049 3.18510963043
144 8 2 28.083742865 62.6897281972 3.93277960305
145 9 1 39.9292992605 34.0922062975 61.0129970903
146 9 1 37.5947081765 29.1108986949 61.5172292792
147 9 2 40.1760003514 34.2820739042 61.4717676775
148 9 2 40.4321814495 34.5807443765 62.4302128795
149 9 2 40.4090217513 34.7691848772 63.4487431035
150 9 2 40.1164866956 34.8141957281 64.4416415251
151 9 2 39.589094565 34.6956504802 65.3255275902
152 9 2 38.8827702368 34.4083303858 66.0269569293
153 9 2 38.0697477797 33.9624000733 66.4891156163
154 9 2 37.231986512 33.3824810686 66.6769986052
155 9 2 36.4537006282 32.7054076088 66.5806003468
156 9 2 35.8136833006 31.9768692998 66.2158267679
157 9 2 35.3781248921 31.2472466311 65.6230454884
158 9 2 35.1945798817 30.5670189285 64.8634064208
159 9 2 35.2876324007 29.982163299 64.0132681189
160 9 2 35.6566554548 29.5299639396 63.1572378997
161 9 2 36.2758680731 29.2356137832 62.3804601131
162 9 2 37.0966851747 29.1099182295 61.7608554611
163 10 1 6.23137361302 45.034738768 69.528807516
164 10 1 5.67778863128 44.3052876599 74.9766911243
165 10 2 6.61490799416 45.4066971464 69.3807199363
166 10 2 7.22026364714 46.2387395986 69.259476782
167 10 2 7.64439935286 47.178628054 69.3603162863
168 10 2 7.86249619947 48.1373730559 69.6869533906
169 10 2 7.86851516642 49.0242664238 70.2225221886
170 10 2 7.67574756505 49.7551490612 70.9311132084
171 10 2 7.3156035711 50.2600818332 71.7610464651
172 10 2 6.83474927115 50.4897203308 72.6495819533
173 10 2 6.2908531735 50.4198124827 73.5286382307
174 10 2 5.74732987787 50.0534090661 74.3309978599
175 10 2 5.26756000403 49.4205856368 74.9964340978
176 10 2 4.90911321776 48.575701223 75.4772004026
177 10 2 4.7185009097 47.5924436445 75.7423824033
178 10 2 4.72693680635 46.5571130653 75.7807156619
179 10 2 4.94749192238 45.5607559644 75.601612397
180 10 2 5.37390317255 44.6908664923 75.2343035852
181 11 1 74.7640649305 28.2844511418 74.1602070745
182 11 1 70.0430945281 26.2107089873 76.142635635
183 11 2 75.0560042308 28.5873300549 74.5213405637
184 11 2 75.3960669467 29.2628879576 75.2294569951
185 11 2 75.4403627313 30.0179069156 75.9375772305
186 11 2 75.1822243156 30.7737795465 76.5974795986
187 11 2 74.6425504998 31.4518206581 77.1653373577
188 11 2 73.8679012831 31.9804391932 77.6057133864
189 11 2 72.9262540447 32.301663563 77.8947901821
190 11 2 71.9008075869 32.3764256024 78.0225407631
191 11 2 70.8823987872 32.1881215293 77.9936426008
192 11 2 69.9612230589 31.7441253344 77.827051281
193 11 2 69.2186132812 31.075116662 77.5542727527
194 11 2 68.7196265239 30.2322844423 77.2164916452
195 11 2 68.5071142697 29.2826611571 76.8608173992
196 11 2 68.597816616 28.3030130087 76.5359903669
197 11 2 68.9808364598 27.3728428852 76.2879392597
198 11 2 69.6186327396 26.5671438851 76.1555948685
199 12 1 44.7165192854 26.3901156848 69.0139969425
200 12 1 41.1549029332 27.4176370276 64.9180135548
201 12 2 45.0878856913 26.7911988569 69.1067378162
202 12 2 45.8170647127 27.5248863255 69.0479954604
203 12 2 46.5243900613 28.1924962466 68.6910110692
204 12 2 47.1348185121 28.7489868055 68.0655949073
205 12 2 47.5821387331 29.1594444204 67.2260240779
206 12 2 47.8150062714 29.402266022 66.2460953099
207 12 2 47.8016234632 29.4711281157 65.2123985827
208 12 2 47.5326377056 29.375563151 64.216424682
209 12 2 47.0219939211 29.1400906642 63.3462260584
210 12 2 46.3056635158 28.8019823884 62.6783910822
211 12 2 45.4383656812 28.4078650347 62.2710632182
212 12 2 44.4885798869 28.0094703915 62.158641404
213 12 2 43.532304159 27.6589201113 62.3486446792
214 12 2 42.6461280643 27.4039749602 62.8210268446
215 12 2 41.9002517749 27.2836815528 63.5300036202
216 12 2 41.352087511 27.3248133569 64.4082257593
217 13 1 65.909436658 6.53566981561 70.2872606732
218 13 1 63.2422528525 5.78612187149 75.0666225017
219 13 2 65.9154669893 7.05840249835 70.1026102858
220 13 2 65.6949016606 8.02301580986 69.7954912434
221 13 2 65.1934422149 8.90267402955 69.5759693721
222 13 2 64.4589022347 9.62708170587 69.4803945469
223 13 2 63.5603399704 10.1400940593 69.5338192007
224 13 2 62.5817638652 10.4048344291 69.7477148623
225 13 2 61.6144754099 10.4070554821 70.118926557
226 13 2 60.7487472562 10.1564378193 70.6299603741
227 13 2 60.0655951058 9.68570761492 71.2505779901
228 13 2 59.6293933458 9.04765371292 71.9405528113
229 13 2 59.4820074951 8.31031606517 72.65333652
230 13 2 59.6389782744 7.55078407154 73.3403018294
231 13 2 60.0881051112 6.84817008725 73.9551747307
232 13 2 60.7905581889 6.27639854309 74.4582522456
233 13 2 61.6844176816 5.89746793112 74.8200212463
234 13 2 62.6903175799 5.75579980787 75.0238484984
235 14 1 52.5091709088 53.2716645746 12.2113160376
236 14 1 56.3814792134 50.6575128055 15.1590999482
237 14 2 52.1216391117 52.9423176879 11.990564316
238 14 2 51.5832273269 52.2051764333 11.5004770463
239 14 2 51.3265844126 51.3586611753 10.961036277
240 14 2 51.3725375204 50.4670096477 10.4353977353
241 14 2 51.7143329836 49.598573635 9.9854591124
242 14 2 52.318251895 48.8195888894 9.66621825401
243 14 2 53.126683496 48.1881379191 9.52076025406
244 14 2 54.063376243 47.7488559232 9.57633036339
245 14 2 55.0403879315 47.5288624122 9.84185065796
246 14 2 55.9661013934 47.5352893375 10.3071068155
247 14 2 56.753575157 47.7546310328 10.9436791237
248 14 2 57.3284679293 48.1539752196 11.7075328611
249 14 2 57.6358146067 48.6840028734 12.5430319438
250 14 2 57.645036197 49.283483521 13.3880100066
251 14 2 57.3527270128 49.8848562344 14.1794367004
252 14 2 56.782965091 50.4203876288 14.8591627403
253 15 1 38.8456416638 54.9336197916 5.41117762224
254 15 1 35.7681347577 55.4606639066 9.96849775638
255 15 2 38.8216450248 55.3636688897 5.06208805984
256 15 2 38.5444598209 56.13928129 4.43356297803
257 15 2 37.9879921358 56.8288402841 3.89662525339
258 15 2 37.2023702908 57.3843581998 3.51237510931
259 15 2 36.2586093964 57.7700648506 3.32799570433
260 15 2 35.2421385148 57.9656678931 3.3724525133
261 15 2 34.2450140292 57.9682024195 3.65385320182
262 15 2 33.3575289504 57.7923012014 4.15870863415
263 15 2 32.6599829504 57.4688609515 4.8531623719
264 15 2 32.2153632619 57.042226171 5.68607659789
265 15 2 32.0636035602 56.5661472668 6.59369319152
266 15 2 32.2179441155 56.0988813452 7.50544511101
267 15 2 32.663724978 55.6978822331 8.35038839072
268 15 2 33.3597221925 55.4145637145 9.06366849394
269 15 2 34.2419052522 55.2896133021 9.59243163059
270 15 2 35.2292733083 55.3492836788 9.90064223895
271 16 1 34.5932797581 39.567576753 21.9328872133
272 16 1 32.0871224967 38.3433268322 26.7013648502
273 16 2 34.3152675195 39.9189784822 21.6063790083
274 16 2 33.6171506861 40.4272467512 21.0338877289
275 16 2 32.737391824 40.7126963013 20.5669906203
276 16 2 31.7487084306 40.7614869857 20.2610909178
277 16 2 30.7337461835 40.5813494807 20.1569173736
278 16 2 29.7775460073 40.2008806552 20.2768119395
279 16 2 28.9597928209 39.6669370424 20.6226933581
280 16 2 28.3475524705 39.0403639921 21.1758822745
281 16 2 27.9891588561 38.3904497801 21.8988038092
282 16 2 27.9098084265 37.7886101663 22.7384124084
283 16 2 28.1092635898 37.3018790398 23.6310268041
284 16 2 28.5618743697 36.9867984585 24.5081343918
285 16 2 29.218916332 36.8842649919 25.3026359709
286 16 2 30.0130316866 37.0158021083 25.9549616578
287 16 2 30.8643687699 37.3815983678 26.4185005216
288 16 2 31.6878603111 37.9604902357 26.6638490454
289 17 1 56.8007301946 23.1419848025 72.8164302092
290 17 1 55.1283133883 21.1499684979 77.6901232781
291 17 2 56.5151678699 23.5803042384 72.6328224238
292 17 2 55.7951124333 24.2636800226 72.3362289025
293 17 2 54.8887291044 24.7245525285 72.1374430738
294 17 2 53.8755463431 24.9306518559 72.0708565101
295 17 2 52.8448270915 24.8729299987 72.1588111741
296 17 2 51.8874326965 24.5663855468 72.4095630087
297 17 2 51.0875411399 24.0486966044 72.8165294297
298 17 2 50.514974441 23.3767865318 73.3588893109
299 17 2 50.2188345656 22.6216355331 74.0034807742
300 17 2 50.2230279138 21.8618110003 74.7078238059
301 17 2 50.5240863146 21.1763063055 75.4239921966
302 17 2 51.0914831414 20.6373407663 76.1029818871
303 17 2 51.8704157315 20.3037770479 76.6991775572
304 17 2 52.786800503 20.2157559885 77.1745103404
305 17 2 53.754025475 20.3910378692 77.5019276994
306 17 2 54.6808447182 20.8233836119 77.6678591925
307 18 1 53.3812042854 10.5981447568 13.6965419988
308 18 1 49.9107638098 7.78550272778 16.9466310413
309 18 2 53.4207113916 11.1393760312 13.8100738629
310 18 2 53.2596256797 12.1425118863 14.0131006121
311 18 2 52.8064356109 13.0544089613 14.2041830482
312 18 2 52.1016555547 13.7919750194 14.3851012436
313 18 2 51.2087316356 14.2880076303 14.5585617141
314 18 2 50.2082587883 14.4973194915 14.7279507271
315 18 2 49.1906347449 14.4008571308 14.8970256526
316 18 2 48.2478205232 14.007437579 15.0695724886
317 18 2 47.4649584255 13.352944721 15.249060778
318 18 2 46.9126115458 12.4970585759 15.4383273687
319 18 2 46.640332132 11.5178156226 15.6393178424
320 18 2 46.6721450309 10.5044959836 15.8529091805
321 18 2 47.004357888 9.54948577976 16.078829829
322 18 2 47.6058976952 8.73985638317 16.3156844503
323 18 2 48.4211430131 8.14942809374 16.5610811046
324 18 2 49.3749937159 7.83204161637 16.8118492684
325 19 1 76.8770774839 36.5469447086 31.5082121216
326 19 1 71.9590909407 36.9109518955 33.9979707827
327 19 2 77.2735569611 36.8673307209 31.7262451818
328 19 2 77.8520359771 37.6349369988 32.1130172611
329 19 2 78.1703946191 38.5586394003 32.4577949572
330 19 2 78.1957963599 39.5529343727 32.7479367683
331 19 2 77.9221069107 40.5258840393 32.9757811075
332 19 2 77.3704533455 41.3874960908 33.139344636
333 19 2 76.5872984244 42.0579263441 33.2425030391
334 19 2 75.6402056372 42.4747563258 33.2946377677
335 19 2 74.6116809722 42.5986825498 33.3097809445
336 19 2 73.5916527158 42.4170989242 33.3053363731
337 19 2 72.6692747293 41.9452457637 33.3004932281
338 19 2 71.9248003129 41.2248206752 33.3144770128
339 19 2 71.4222673319 40.3201779322 33.3647972064
340 19 2 71.2036613365 39.3124627555 33.4656513216
341 19 2 71.2850886909 38.2922151424 33.6266308389
342 19 2 71.6553085216 37.3511173883 33.8518469694
343 20 1 44.4783113162 5.35133710153 5.43095292848
344 20 1 46.2966084543 2.17836960989 9.5714920088
345 20 2 44.2271087009 5.81977177162 5.58858475888
346 20 2 43.6343704265 6.55071838043 6.0219765036
347 20 2 42.9384686852 7.04030166463 6.6131439803
348 20 2 42.2135248229 7.24917565444 7.32326936645
349 20 2 41.5363072972 7.16358028197 8.10269214402
350 20 2 40.9792344375 6.79659557469 8.89543552297
351 20 2 40.6037737084 6.18694944581 9.64430857604
352 20 2 40.4548391139 5.39548774856 10.2961190389
353 20 2 40.5566974064 4.49962833929 10.806521643
354 20 2 40.9107562369 3.58630464674 11.144060068
355 20 2 41.4954358515 2.74404192241 11.2930341016
356 20 2 42.2681360282 2.05488840049 11.2549306716
357 20 2 43.1691189732 1.58693682056 11.0482883169
358 20 2 44.1269542615 1.38811795645 10.7070074486
359 20 2 45.0650295286 1.48183185424 10.2772604187
360 20 2 45.9085334835 1.86481498064 9.81328303326
361 21 1 53.2172648357 23.9990348188 20.0353856855
362 21 1 51.0952329651 20.0075142384 23.2107179922
363 21 2 53.144189712 24.5139640483 20.2274520879
364 21 2 52.783236484 25.4083777015 20.6058526631
365 21 2 52.1625067829 26.1409529991 20.9950545164
366 21 2 51.3409331889 26.6423994376 21.3784841844
367 21 2 50.3957546665 26.864493291 21.7400943227
368 21 2 49.4154764387 26.7844730751 22.0658263787
369 21 2 48.4918029731 26.4071141955 22.3448919914
370 21 2 47.7112793645 25.7642936823 22.570756321
371 21 2 47.1474029807 24.912084684 22.7417336827
372 21 2 46.8539243741 23.9256455499 22.8611411921
373 21 2 46.8599480625 22.8923693472 22.9369964189
374 21 2 47.1672797299 21.9039182171 22.9812866071
375 21 2 47.7502616433 21.0478686149 23.0088760694
376 21 2 48.5581112865 20.3997289507 23.0361513453
377 21 2 49.5195500511 20.0160571993 23.0795276112
378 21 2 50.5493000903 19.9293057923 23.1539524817
379 22 1 56.9704895397 61.7430256804 48.8659672491
380 22 1 55.3827364635 56.7960455578 50.7433108236
381 22 2 56.640008786 62.1644095424 49.0094932062
382 22 2 55.8525434474 62.8115909377 49.1952473268
383 22 2 54.9041046344 63.2210389595 49.2744063227
384 22 2 53.8763047755 63.3506505536 49.2577241209
385 22 2 52.8579898465 63.1838290085 49.1646903177
386 22 2 51.937141297 62.730996701 49.0217537534
387 22 2 51.1928567769 62.0286451242 48.8599117719
388 22 2 50.6881405966 61.136008786 48.7118848952
389 22 2 50.4641610526 60.1296661416 48.6091344354
390 22 2 50.5364980474 59.0965596719 48.5789948804
391 22 2 50.8937230229 58.1260713094 48.642182428
392 22 2 51.498440643 57.301875513 48.81090676
393 22 2 52.2906972788 56.6943125655 49.0877581627
394 22 2 53.1934456209 56.3539772444 49.4654714286
395 22 2 54.1195673366 56.3071072435 49.927588061
396 22 2 54.9798136724 56.5531916767 50.449956422
397 23 1 54.5032921759 35.2763247074 30.8541525942
398 23 1 49.7942979769 33.6814583612 33.2624229348
399 23 2 54.4428796369 35.6443628485 30.4439333359
400 23 2 54.170217228 36.1782984924 29.5989375074
401 23 2 53.7005378406 36.479444236 28.7259183064
402 23 2 53.0625378551 36.5314785797 27.9112414031
403 23 2 52.3002556247 36.3407858623 27.2359547233
404 23 2 51.469057497 35.9358743455 26.7684011464
405 23 2 50.6305913195 35.364777762 26.5579892348
406 23 2 49.8471674028 34.690677169 26.6306897753
407 23 2 49.1760791028 33.9861421641 26.9866686114
408 23 2 48.6643806842 33.3265163601 27.6002715271
409 23 2 48.3445984497 32.7830500161 28.4223625601
410 23 2 48.2317660551 32.4164057669 29.3848026136
411 23 2 48.3220542313 32.2711293861 30.4066601523
412 23 2 48.593119812 32.3715895575 31.4015878965
413 23 2 49.0061422538 32.7197567354 32.2856931448
414 23 2 49.5093620246 33.295023542 32.9851843703
415 24 1 20.1585215129 29.3433841456 78.5116699224
416 24 1 19.0964113168 28.4314073087 73.1676815952
417 24 2 19.7225361478 29.5088042151 78.8115608193
418 24 2 18.8823085891 29.9751422804 79.1988545962
419 24 2 18.0645668476 30.5988355932 79.3243739453
420 24 2 17.3296830317 31.3124819833 79.1691173249
421 24 2 16.7304769711 32.0404802978 78.7396751725
422 24 2 16.307401831 32.7059212444 78.0676292041
423 24 2 16.0848569138 33.2375974675 77.2066738251
424 24 2 16.068963728 33.5764939087 76.2277220285
425 24 2 16.2470080293 33.6811668713 75.2124418658
426 24 2 16.5885986897 33.5315215029 74.2458126216
427 24 2 17.0484377677 33.130643387 73.4083791797
428 24 2 17.5704492945 32.5045173006 72.7689105714
429 24 2 18.0928904489 31.6996587712 72.3781318628
430 24 2 18.5539792502 30.7788743109 72.2641007003
431 24 2 18.8975258208 29.8155367702 72.4296499312
432 24 2 19.0780539432 28.8868975996 72.852129397
433 25 1 23.8384634347 69.2096356283 25.946845543
434 25 1 18.4781491188 69.9007720243 27.0902404786
435 25 2 24.1711005433 69.1893935735 26.3899306379
436 25 2 24.6801196613 69.3491564743 27.2780890496
437 25 2 24.9933329678 69.7437753728 28.1834195752
438 25 2 25.0714445254 70.3274077778 29.0358993765
439 25 2 24.8965872928 71.0369831218 29.7703228175
440 25 2 24.4739516577 71.7979514752 30.3322447836
441 25 2 23.8313123469 72.5310785732 30.6829432091
442 25 2 23.0164968342 73.1596678065 30.8029484891
443 25 2 22.0930259943 73.6165509133 30.6938180825
444 25 2 21.1343243441 73.8502101859 30.3779945534
445 25 2 20.2170275951 73.8294741726 29.8967599919
446 25 2 19.4139975126 73.5463588722 29.3064732612
447 25 2 18.7876807605 73.016795454 28.6734330387
448 25 2 18.3844170551 72.2791781747 28.067834868
449 25 2 18.2302154237 71.3908648444 27.557373023
450 25 2 18.3283835511 70.4229488152 27.201070356
451 26 1 33.5618885675 55.6935003619 48.0262089234
452 26 1 37.5613305007 52.2524908783 49.6638624333
453 26 2 33.6324678995 55.9099556757 47.5206921155
454 26 2 33.9785233606 56.3672227952 46.6577886386
455 26 2 34.5805131227 56.8435906764 45.9619927064
456 26 2 35.3909615075 57.2807436171 45.4871024736
457 26 2 36.3433923905 57.6239402521 45.2667811309
458 26 2 37.3583883219 57.8270030824 45.311488595
459 26 2 38.3508292151 57.8565274306 45.6075281154
460 26 2 39.2376508147 57.6949261884 46.1182946962
461 26 2 39.945415782 57.3420328339 46.7876115439
462 26 2 40.4170073114 56.8151166102 47.5448504321
463 26 2 40.616835175 56.1473084796 48.3113692752
464 26 2 40.5340796769 55.3845813254 49.0076801447
465 26 2 40.1836778391 54.581559646 49.560694381
466 26 2 39.6049619322 53.7965406781 49.91038443
467 26 2 38.8580744439 53.0861807595 50.0152551934
468 26 2 38.0184862521 52.500331255 49.8561261967
469 27 1 28.3573098676 18.6357963914 53.6375833999
470 27 1 25.2687054661 14.4502388907 55.4975894
471 27 2 28.8504820732 18.6901208444 53.8849932169
472 27 2 29.6443882052 18.7802680807 54.5445662155
473 27 2 30.2135002146 18.8329798573 55.4087322878
474 27 2 30.5111581072 18.8251120436 56.4010970835
475 27 2 30.5154442059 18.7390421769 57.4335812812
476 27 2 30.2311808886 18.5642757023 58.4144487834
477 27 2 29.6894910411 18.298402524 59.2566682165
478 27 2 28.9449612896 17.9473166786 59.8858456076
479 27 2 28.0706665753 17.5246791094 60.2470051966
480 27 2 27.1515095688 17.0506725083 60.3096003298
481 27 2 26.2764820189 16.5501617171 60.0702977055
482 27 2 25.5305533923 16.0504273635 59.553281196
483 27 2 24.986926134 15.5786793054 58.8080475515
484 27 2 24.7003634598 15.1595765242 57.9048949045
485 27 2 24.7021978359 14.8129795254 56.9285152823
486 27 2 24.9974751081 14.5521401059 55.9702751553
487 28 1 52.0686829951 46.1563018098 33.4178727563
488 28 1 55.4729799717 42.4754048283 35.7373016877
489 28 2 51.5499846785 46.1504673494 33.6135756013
490 28 2 50.5963347448 45.9084593214 33.9382815135
491 28 2 49.742003586 45.3837738019 34.1995732814
492 28 2 49.0677932613 44.6210647575 34.3923564826
493 28 2 48.6380882968 43.6866813628 34.5177810672
494 28 2 48.4949872089 42.6626204507 34.5831365432
495 28 2 48.6544653364 41.6390527202 34.6011875574
496 28 2 49.1049187316 40.706103918 34.5890104318
497 28 2 49.8082218287 39.9456401177 34.5664367025
498 28 2 50.7032024873 39.423805846 34.5542455283
499 28 2 51.7112176697 39.1849951858 34.5722697259
500 28 2 52.7433215436 39.2478053744 34.6375880615
501 28 2 53.7083726565 39.6033417149 34.7629685671
502 28 2 54.5213412362 40.2160283038 34.9557047684
503 28 2 55.1110594268 41.0268506801 35.2169508996
504 28 2 55.4267080484 41.9587348351 35.5416166977
505 29 1 38.9824086287 22.0888547576 59.9283813923
506 29 1 37.7653549271 16.8122656064 58.8355052428
507 29 2 39.5176530228 22.1882066395 60.0333777261
508 29 2 40.4938812525 22.1948886364 60.3803414213
509 29 2 41.3679532381 21.9592333028 60.8842409538
510 29 2 42.0688686037 21.4909756029 61.486654755
511 29 2 42.5414097365 20.8210515849 62.1201819439
512 29 2 42.7511747246 19.9987786428 62.7145857374
513 29 2 42.6877129992 19.0873603681 63.2031953455
514 29 2 42.3654778763 18.1581257107 63.528982835
515 29 2 41.8225091756 17.2840275365 63.6497610741
516 29 2 41.1169659921 16.5329931682 63.542028976
517 29 2 40.3218256506 15.9617329914 63.2031135603
518 29 2 39.5182320174 15.6105714549 62.6514135883
519 29 2 38.7880994536 15.4997716044 61.9247225648
520 29 2 38.2066465403 15.6276881607 61.0767839612
521 29 2 37.8355401058 15.9709174818 60.1723926418
522 29 2 37.7172744591 16.4864307428 59.2814889851
523 30 1 56.3506916793 67.7735098256 7.61788853589
524 30 1 58.7677986112 62.8499043024 6.95933421562
525 30 2 56.2009173439 68.0250438017 7.14705959098
526 30 2 56.1424228874 68.4480742119 6.20309259908
527 30 2 56.3702820586 68.7637190116 5.24293710662
528 30 2 56.8575690103 68.928380538 4.34355508565
529 30 2 57.5537117464 68.9122228498 3.57636916871
530 30 2 58.3891016246 68.7018911942 3.00075266679
531 30 2 59.2814379974 68.3017292562 2.65861785072
532 30 2 60.1432296967 67.7333832439 2.57059575972
533 30 2 60.8897696197 67.0338288941 2.73415573728
534 30 2 61.446855555 66.2520012331 3.12383609378
535 30 2 61.7575535158 65.4443342793 3.69356487142
536 30 2 61.7873871207 64.6696172338 4.38085918004
537 30 2 61.5274800236 63.9836360016 5.11252034555
538 30 2 60.9953649688 63.4340884555 5.81130577345
539 30 2 60.2333857288 63.0562369023 6.40296940485
540 30 2 59.3048375819 62.8696940182 6.82302904629
541 31 1 66.1678240233 18.9528696737 38.9352917272
542 31 1 69.5262540363 19.9622098276 43.2038009943
543 31 2 66.0576038409 18.4168272581 38.8464568915
544 31 2 66.0855682816 17.3928412626 38.6911485454
545 31 2 66.4131962076 16.4165473597 38.57730581
546 31 2 67.0092107995 15.5702165922 38.533250738
547 31 2 67.8178725107 14.9242742105 38.5809444233
548 31 2 68.7640595779 14.5308805993 38.7339853056
549 31 2 69.7601151694 14.4191769979 38.9963697093
550 31 2 70.7138370706 14.592629354 39.3621275891
551 31 2 71.5368816696 15.028712412 39.8158666834
552 31 2 72.1528162415 15.6809628296 40.3341754784
553 31 2 72.5040855867 16.4832141878 40.8877571044
554 31 2 72.5572580337 17.3556278824 41.4440996676
555 31 2 72.3060726464 18.2119701999 41.9704396219
556 31 2 71.772009892 18.96747229 42.4367480792
557 31 2 71.0023337534 19.5465566195 42.8184678615
558 31 2 70.0657837439 19.8897256625 43.0987518228
559 32 1 74.3210289574 9.31385735433 69.2416022874
560 32 1 71.1039689381 6.32063882067 72.589610457
561 32 2 74.343229008 9.85478734658 69.3611158402
562 32 2 74.1501521691 10.8478430953 69.5847486318
563 32 2 73.6686604797 11.7379079133 69.8070106032
564 32 2 72.9426380736 12.4436061961 70.0268546627
565 32 2 72.0382574059 12.9003668564 70.2434541047
566 32 2 71.0379478105 13.0663088055 70.4562779618
567 32 2 70.0328822868 12.9260583031 70.6651394011
568 32 2 69.1146673243 12.4921502324 70.8702127536
569 32 2 68.3669932158 11.8038855791 71.0720176242
570 32 2 67.8580059113 10.9237492517 71.2713715311
571 32 2 67.6340956965 9.9317147487 71.4693153913
572 32 2 67.7156688423 8.91795478849 71.6670186441
573 32 2 68.0952876277 7.97462230667 71.8656726591
574 32 2 68.7383482684 7.18745096245 72.0663821467
575 32 2 69.586234959 6.62794074474 72.2700644663
576 32 2 70.5616625472 6.34684093925 72.477366012
577 33 1 12.1769001361 74.8005742988 10.474125928
578 33 1 14.6039404745 71.4432910585 14.12872789
579 33 2 11.6229923637 74.7776050468 10.4677870707
580 33 2 10.6244011405 74.5028404301 10.4400384559
581 33 2 9.74988325609 73.9480917669 10.40966739
582 33 2 9.07511398153 73.1619599799 10.3981239602
583 33 2 8.65756203601 72.2141359453 10.4251421652
584 33 2 8.53125146668 71.1890483554 10.5069412135
585 33 2 8.70366044764 70.1781682691 10.6547471863
586 33 2 9.15503966441 69.2716717693 10.8737698101
587 33 2 9.84021241113 68.550220654 11.1627276039
588 33 2 10.6926923266 68.077610329 11.5139646829
589 33 2 11.6307434482 67.8949550271 11.914148572
590 33 2 12.5648302268 68.0169403558 12.345485425
591 33 2 13.4057784525 68.4304847433 12.7873418864
592 33 2 14.0729032454 69.0959317889 13.2181257666
593 33 2 14.5013632671 69.9506648377 13.6172541121
594 33 2 14.648070835 70.9148143219 13.9670292867