LAMMPS input file for bananas

648 atoms

2 atom types

0 85.0126855346 xlo xhi
0 85.0126855346 ylo yhi
0 85.0126855346 zlo zhi

Masses

 1 1
 2 1

Atoms

1 1 1 17.8023261696 55.3795803474 39.7669938514
2 1 1 15.4700163606 50.7915453966 37.7599419569
3 1 2 18.1459527473 55.2991069528 40.1945758855
4 1 2 18.6074723003 55.0259918209 41.0810621168
5 1 2 18.8052205484 54.6019509564 42.0054727327
6 1 2 18.7298402638 54.0492316568 42.8785530266
7 1 2 18.3968691544 53.4018099152 43.6157269138
8 1 2 17.845323643 52.7022935993 44.1448058152
9 1 2 17.1341426254 51.9980388578 44.4125684533
10 1 2 16.3368153467 51.3368337343 44.3896118298
11 1 2 15.5346830538 50.7625424148 44.07303123
12 1 2 14.8095249576 50.3111071244 43.4866849797
13 1 2 14.2361042767 50.0072720893 42.679019823
14 1 2 13.8753537699 49.8623281674 41.7186551306
15 1 2 13.7688218781 49.8730837157 40.6881284277
16 1 2 13.9348856948 50.0221555011 39.6763723193
17 1 2 14.3670759434 50.279553135 38.7706085211
18 1 2 15.0346666342 50.6054126173 38.0483978326
19 2 1 40.7332497271 49.2324771045 76.7049990358
20 2 1 36.9295358338 46.592699285 73.6914753934
21 2 2 40.5568724928 49.6989676649 76.9471956838
22 2 2 40.1502511066 50.6221377818 77.1835555675
23 2 2 39.6614132586 51.5337702857 77.1251282841
24 2 2 39.1170466793 52.3459647991 76.7824110378
25 2 2 38.5489003945 52.9798844516 76.191813303
26 2 2 37.9908908865 53.37294165 75.4123381982
27 2 2 37.4760106977 53.4845027698 74.5202045093
28 2 2 37.0333212481 53.299591802 73.601899551
29 2 2 36.6853039651 52.8302553756 72.7462960794
30 2 2 36.4458111607 52.1144647402 72.0365517774
31 2 2 36.3188034312 51.2126547879 71.5425296547
32 2 2 36.2979886586 50.2022155742 71.3144302208
33 2 2 36.3673955208 49.1704384214 71.3782158429
34 2 2 36.5028292351 48.206559548 71.7332443456
35 2 2 36.6740768473 47.3936264258 72.3523275431
36 2 2 36.8476610625 46.800928225 73.1842093701
37 3 1 65.2764925652 53.9827083257 43.0572298276
38 3 1 61.000066837 50.8361092655 44.5833649483
39 3 2 65.3048675916 54.47610722 43.3084945825
40 3 2 65.1328053004 55.4148409805 43.7117606313
41 3 2 64.6781753112 56.2961610296 44.0118215502
42 3 2 63.9767899001 57.0353563006 44.1991684679
43 3 2 63.0869524399 57.5606700201 44.2745660928
44 3 2 62.0841432045 57.8198401465 44.2489830123
45 3 2 61.0541395427 57.7848629157 44.1425919352
46 3 2 60.085197503 57.4545453085 43.982931003
47 3 2 59.2600075299 56.8546137922 43.8023937623
48 3 2 58.6481574516 56.0353694209 43.6352765794
49 3 2 58.2997897346 55.0671030294 43.5146526182
50 3 2 58.241031133 54.0336884113 43.4693573097
51 3 2 58.4716113035 53.0249374469 43.5213600794
52 3 2 58.9648874476 52.1284139906 43.6837618933
53 3 2 59.6702727304 51.4214526591 43.9596011393
54 3 2 60.5178471364 50.9641099883 44.3415766869
55 4 1 8.3344132271 72.9376753434 31.5044306225
56 4 1 5.22960310765 70.1845482194 35.1511327247
57 4 2 8.35445602808 73.4863000985 31.5818305732
58 4 2 8.15760548817 74.4920443743 31.7340748756
59 4 2 7.67337978419 75.3928252098 31.9001151275
60 4 2 6.94639006181 76.1077570579 32.0839857539
61 4 2 6.04337475812 76.5728940103 32.2880959889
62 4 2 5.0471165715 76.7470582956 32.5130102803
63 4 2 4.04889703987 76.6155935234 32.757396842
64 4 2 3.1401764725 76.191700575 33.0181490421
65 4 2 2.4042575873 75.5152343783 33.290668565
66 4 2 1.90869269069 74.6490712378 33.5692845346
67 4 2 1.69912646544 73.6733778275 33.8477704003
68 4 2 1.79513557985 72.6783042125 34.11991147
69 4 2 2.18844432672 71.7557669119 34.3800713628
70 4 2 2.84367893198 70.9910709536 34.6237057501
71 4 2 3.70159177963 70.4551345491 34.8477765589
72 4 2 4.68446167357 70.1980250879 35.0510288841
73 5 1 63.6004434552 23.8353466802 12.1915188224
74 5 1 60.2501600443 20.475962157 15.0213823798
75 5 2 63.5356379416 24.375232769 12.2997077526
76 5 2 63.1873169042 25.3372343654 12.46303379
77 5 2 62.569825281 26.1610872716 12.5788806515
78 5 2 61.7361984414 26.7715187618 12.6556250274
79 5 2 60.759171902 27.1127089018 12.7052076952
80 5 2 59.7245516789 27.1533783867 12.7420451493
81 5 2 58.7233932983 26.8896395664 12.7817155765
82 5 2 57.8437023291 26.3453507938 12.8395389454
83 5 2 57.1624129102 25.5699418006 12.9291806327
84 5 2 56.7383754095 24.6339083085 13.0614058604
85 5 2 56.6069923702 23.6223865331 13.2430984744
86 5 2 56.7769916633 22.6273932452 13.4766335009
87 5 2 57.2296309661 21.7394386883 13.7596606685
88 5 2 57.9204060741 21.0392768114 14.0853186294
89 5 2 58.7831073408 20.5905447629 14.4428603531
90 5 2 59.7358545099 20.4339625342 14.8186326893
91 6 1 54.7174252063 52.7851351802 22.8982641467
92 6 1 59.4502450112 51.9099256352 25.6097980314
93 6 2 54.4257119903 53.2230741096 23.0728908395
94 6 2 53.9121208878 53.9442059155 23.6110758533
95 6 2 53.4923651392 54.4921325495 24.3837540052
96 6 2 53.2186208693 54.8296008085 25.3243013247
97 6 2 53.1297556472 54.9385402076 26.3507930152
98 6 2 53.2477858105 54.8217100569 27.3734706808
99 6 2 53.5758697358 54.5024479574 28.3029235633
100 6 2 54.0980199605 54.0225426411 29.0582380948
101 6 2 54.7805603976 53.4384250401 29.5743729523
102 6 2 55.5751958209 52.8160247575 29.8080874009
103 6 2 56.4234138457 52.2247607606 29.7418825712
104 6 2 57.2618181766 51.7312140275 29.3855964344
105 6 2 58.02790701 51.3930588687 28.7755070974
106 6 2 58.6657699067 51.2538060683 27.9710261506
107 6 2 59.1311838789 51.3388369918 27.04928346
108 6 2 59.3956441973 51.653090143 26.0980969861
109 7 1 39.8875436901 6.57873956831 72.8627646743
110 7 1 37.0943155528 3.46092985421 76.4676405696
111 7 2 39.8776712282 7.12301270836 72.9678878
112 7 2 39.6269631335 8.10585411747 73.1791180701
113 7 2 39.0964085576 8.96564818425 73.4087177562
114 7 2 38.3354983832 9.62431486547 73.6549370096
115 7 2 37.4147197903 10.0221063415 73.9145111523
116 7 2 36.4191315378 10.1230528706 74.1829582439
117 7 2 35.4406110852 9.91824133416 74.4549875984
118 7 2 34.5694802078 9.4266276444 74.7249820161
119 7 2 33.8862724078 8.69330896308 74.9875097763
120 7 2 33.4543925015 7.78541321595 75.2378197242
121 7 2 33.3143374393 6.7859805617 75.4722743261
122 7 2 33.480005117 5.78639450348 75.6886812206
123 7 2 33.9374276198 4.87805252675 75.8864930463
124 7 2 34.6460443604 4.14403546286 76.0668573332
125 7 2 35.5423990682 3.65153489326 76.2325119073
126 7 2 36.5459236585 3.44572881647 76.387535346
127 8 1 17.9100793844 64.0190277874 46.0339378586
128 8 1 20.0044354554 65.9257472164 50.776941625
129 8 2 17.7679124773 64.4100147763 45.6674691245
130 8 2 17.3881586299 65.2334352993 45.1662549298
131 8 2 16.9029714096 66.1217796556 44.945149351
132 8 2 16.3706749568 67.0069182225 45.0266368655
133 8 2 15.8538872928 67.8210135761 45.405621399
134 8 2 15.4138128538 68.5027036918 46.049890819
135 8 2 15.1046638711 69.0026949283 46.9030529848
136 8 2 14.9687190701 69.2882550117 47.8896757399
137 8 2 15.0324700784 69.3461964944 48.9221623523
138 8 2 15.3042067841 69.1840787561 49.9087357216
139 8 2 15.7732617348 68.8295189861 50.7618036168
140 8 2 16.4109824476 68.3276749507 51.4059424743
141 8 2 17.1733430061 67.7371289832 51.7847720536
142 8 2 18.0049569053 67.124548361 51.866094346
143 8 2 18.8441253831 66.5586087615 51.6448283367
144 8 2 19.6284610976 66.1037346574 51.1434731259
145 9 1 28.498691845 71.490596533 18.1527849041
146 9 1 24.5212057119 71.023773939 21.9580012959
147 9 2 28.5986783845 72.0083959637 17.9817058884
148 9 2 28.5523476823 72.9824310796 17.6316215125
149 9 2 28.2060137338 73.8949529475 17.2840490053
150 9 2 27.5893430256 74.6727255099 16.9870017194
151 9 2 26.7566425175 75.2547947479 16.7838877682
152 9 2 25.7819097082 75.5980444779 16.709553493
153 9 2 24.7520879609 75.6811262759 16.7871073119
154 9 2 23.7591418483 75.5064053299 17.0258134488
155 9 2 22.8916748278 75.0997448584 17.420247525
156 9 2 22.2268532725 74.5081487483 17.9507909759
157 9 2 21.8233729634 73.7954772753 18.5854192316
158 9 2 21.716109125 73.036626411 19.2826206701
159 9 2 21.9129376426 72.310701255 19.9951802913
160 9 2 22.3940171957 71.6938058167 20.6744832376
161 9 2 23.1135977419 71.2521063379 21.2749459086
162 9 2 24.0041905106 71.0358004173 21.758170784
163 10 1 47.5214654927 63.4540376326 22.1901124458
164 10 1 44.7891624775 59.9608086615 25.4840254152
165 10 2 47.4665165653 63.989948379 22.3211157864
166 10 2 47.1342631984 64.9400962883 22.5666288449
167 10 2 46.5313728504 65.7469229808 22.809536086
168 10 2 45.7129537676 66.3362439037 23.0468988166
169 10 2 44.7537590642 66.6536995736 23.2762837111
170 10 2 43.7413731761 66.6697102984 23.495984602
171 10 2 42.7682287736 66.3821722871 23.7051779933
172 10 2 41.9231817701 65.8166494044 23.9039981191
173 10 2 41.283412344 65.0240430934 24.0935247091
174 10 2 40.9073901708 64.0759528446 24.2756845741
175 10 2 40.8295450688 63.0581500937 24.4530759818
176 10 2 41.0571288135 62.0627603848 24.6287318323
177 10 2 41.5695541571 61.1798663732 24.8058432172
178 10 2 42.3202713016 60.4892970319 24.9874685599
179 10 2 43.241010788 60.0533514544 25.1762548484
180 10 2 44.2480060755 59.9111204585 25.37419637
181 11 1 49.5982569897 36.328478729 54.1804274021
182 11 1 46.6497925579 37.8662152097 58.591766776
183 11 2 49.3038657173 36.2568138596 53.7161219926
184 11 2 48.6176354567 35.9902437666 52.9870963235
185 11 2 47.7994005137 35.5852716234 52.4972604813
186 11 2 46.9109739316 35.0931145712 52.2924931614
187 11 2 46.020566534 34.5729364228 52.3926898255
188 11 2 45.1965696906 34.0864550392 52.7899492831
189 11 2 44.5013216266 33.6923169111 53.4492938643
190 11 2 43.98542546 33.4407516884 54.3118575403
191 11 2 43.6831368627 33.3689938816 55.3002514052
192 11 2 43.6092417477 33.4978890359 56.3256174678
193 11 2 43.7577085725 33.8299937156 57.2957278197
194 11 2 44.102238098 34.3493424796 58.1233909629
195 11 2 44.598660494 35.022903089 58.7343990818
196 11 2 45.1889613012 35.8035873075 59.0742918871
197 11 2 45.806569294 36.6345428682 59.1133205258
198 11 2 46.3824242698 37.4543354054 58.8491591095
199 12 1 66.7921669891 4.55539832727 74.6116612262
200 12 1 65.5755357832 9.83804967931 75.6753314114
201 12 2 66.7303812126 4.40353652629 74.0820367372
202 12 2 66.4031225012 4.21922703338 73.1164375669
203 12 2 65.8329724279 4.19178016539 72.251784125
204 12 2 65.0781282255 4.33932056474 71.5575996597
205 12 2 64.2136215034 4.66402325213 71.0878696273
206 12 2 63.3244793163 5.15191537923 70.8761210624
207 12 2 62.497974176 5.77414981643 70.9323666786
208 12 2 61.8156693946 6.48963449164 71.242192236
209 12 2 61.345984807 7.2487778228 71.7680703608
210 12 2 61.1379604859 7.99800885804 72.4527810653
211 12 2 61.2167868697 8.68466012479 73.2246271965
212 12 2 61.581508722 9.2617681291 74.0039694403
213 12 2 62.2051121986 9.69235395261 74.7104852318
214 12 2 63.036987087 9.95279378215 75.2704899429
215 12 2 64.0075397923 10.0349721571 75.6236530385
216 12 2 65.0345366073 9.94702167197 75.7284970441
217 13 1 61.426662403 13.6806414643 36.4380997387
218 13 1 64.44759074 10.8497507763 40.0957001757
219 13 2 60.9454866108 13.8750486513 36.6331825179
220 13 2 60.0173637215 14.0167855008 37.0713018839
221 13 2 59.1303561187 13.8644991994 37.5846014126
222 13 2 58.3701680255 13.4373097521 38.1441309026
223 13 2 57.8109444056 12.779393851 38.7167264154
224 13 2 57.5085128483 11.9559582878 39.2680330793
225 13 2 57.4952950324 11.0472965291 39.7656364442
226 13 2 57.7773515774 10.1414701813 40.1820169723
227 13 2 58.3338296339 9.32628241062 40.4970583701
228 13 2 59.1188635653 8.68127491944 40.6998811353
229 13 2 60.0657554777 8.27047793235 40.7898341938
230 13 2 61.0930545551 8.13657401256 40.7765542434
231 13 2 62.1119810831 8.29700766022 40.6790873952
232 13 2 63.0345184828 8.74239529292 40.5241531708
233 13 2 63.7814357869 9.43738053415 40.3437090893
234 13 2 64.2895093302 10.3238568525 40.1720378255
235 14 1 2.52022481699 72.4518875729 56.5361508149
236 14 1 0.987578869491 77.0904239565 59.1154855506
237 14 2 2.95735699686 72.1940303412 56.7593249474
238 14 2 3.87239080191 71.925612964 57.1644363622
239 14 2 4.83848577453 71.9574471527 57.5373935977
240 14 2 5.76444220663 72.2891772038 57.8629851673
241 14 2 6.56271891081 72.8931127072 58.1303168386
242 14 2 7.15741236563 73.7167524536 58.3338046127
243 14 2 7.49117511868 74.6875697789 58.4736836917
244 14 2 7.53044285362 75.7196231763 58.55598704
245 14 2 7.2684936879 76.7213896345 58.5919954961
246 14 2 6.72606085436 77.6041067159 58.5972095541
247 14 2 5.94944292253 78.2898630154 58.5899365353
248 14 2 5.00628380768 78.7186995767 58.5896219246
249 14 2 3.97940720884 78.8540749909 58.6150769666
250 14 2 2.95926744991 78.6861960484 58.6827640708
251 14 2 2.03570480986 78.2329103636 58.8052963074
252 14 2 1.28975682138 77.5380796126 58.9902877592
253 15 1 40.8363420025 46.9875892758 18.3092002738
254 15 1 41.2212324307 41.8772454258 20.3717802493
255 15 2 41.2748479419 47.3125085109 18.4067790617
256 15 2 42.0636465811 47.8487866235 18.8113189285
257 15 2 42.7616741602 48.2396763369 19.4696598296
258 15 2 43.3198534329 48.4371424013 20.3198910123
259 15 2 43.7018539526 48.4107796154 21.2826114378
260 15 2 43.8874034949 48.1505841794 22.2681669734
261 15 2 43.8741358172 47.6678655147 23.184822127
262 15 2 43.6778063348 46.9942154401 23.9471214924
263 15 2 43.3308560576 46.178628662 24.4836787807
264 15 2 42.8794546779 45.2830370382 24.7436834903
265 15 2 42.3792923272 44.3766646542 24.7015321476
266 15 2 41.890503569 43.5297182331 24.3591619959
267 15 2 41.4721862943 42.8069879801 23.7458744204
268 15 2 41.1770151068 42.2619421289 22.9156642052
269 15 2 41.0464401733 41.9318534548 21.9422980536
270 15 2 41.1069091521 41.8344019609 20.9125909496
271 16 1 81.2722182266 26.6199841139 12.8390153388
272 16 1 78.9916650736 22.1795337165 15.2053349802
273 16 2 81.1160734029 27.1060233732 13.0552703284
274 16 2 80.6076748158 27.9275170914 13.4296083559
275 16 2 79.8586457206 28.5670876593 13.7510969472
276 16 2 78.9363121045 28.9622509503 14.0091602829
277 16 2 77.9237961988 29.072799908 14.1990035863
278 16 2 76.9124401093 28.8844693114 14.3220501539
279 16 2 75.9934802277 28.4102360124 14.3858116267
280 16 2 75.2497312784 27.68913613 14.4032033231
281 16 2 74.7480379775 26.7827070122 14.391367043
282 16 2 74.5331823157 25.7693782719 14.3701086382
283 16 2 74.6238017997 24.7373231365 14.3600927618
284 16 2 75.0106906929 23.7764216944 14.3809593409
285 16 2 75.657639094 22.9700685651 14.4495334487
286 16 2 76.5047333728 22.3875717023 14.5782917453
287 16 2 77.473817137 22.0778351596 14.7742252625
288 16 2 78.475614979 22.064901616 15.0382021902
289 17 1 60.7852325913 48.6752451332 29.2434610202
290 17 1 65.2544292432 47.6953334784 26.1476500608
291 17 2 60.8732751343 48.9988298859 29.6849618769
292 17 2 61.2144009831 49.4536558059 30.5511122963
293 17 2 61.76752087 49.6885734288 31.395104069
294 17 2 62.4947522423 49.6949551069 32.1330361908
295 17 2 63.3423427508 49.485003633 32.6906747114
296 17 2 64.2455696328 49.0906399886 33.0102189601
297 17 2 65.1346390186 48.5605938315 33.0555699228
298 17 2 65.9410474566 47.9559619181 32.8156205708
299 17 2 66.6038258197 47.3446392969 32.3052682362
300 17 2 67.0750964781 46.7951308567 31.5640567604
301 17 2 67.3244372176 46.3703072889 30.6525721785
302 17 2 67.3416541429 46.1216745919 29.6469204641
303 17 2 67.1377108237 46.0846794374 28.6317906733
304 17 2 66.7437289953 46.2754783004 27.6927357633
305 17 2 66.2081518949 46.6894648404 26.9083746696
306 17 2 65.5923287902 47.3016897564 26.3432263995
307 18 1 13.1847773822 58.6965862896 32.4118302358
308 18 1 11.3728913766 54.0370046404 34.7620129985
309 18 2 13.0287860075 59.1631414771 32.6675146822
310 18 2 12.5231257877 59.9384585935 33.1329619103
311 18 2 11.7815875711 60.5221362169 33.5606200875
312 18 2 10.8729441372 60.8558718049 33.9299948003
313 18 2 9.88119945904 60.9041443636 34.2259040172
314 18 2 8.89793196622 60.6574520912 34.4398618904
315 18 2 8.01394741544 60.133178442 34.5708522178
316 18 2 7.3110021886 59.3740076708 34.6254210677
317 18 2 6.85435141712 58.4440342772 34.6170801216
318 18 2 6.68680115108 57.4229209635 34.5650751207
319 18 2 6.82480670221 56.398637592 34.4926316682
320 18 2 7.25697278618 55.4594429672 34.4248382775
321 18 2 7.94509217229 54.6858402819 34.3863596214
322 18 2 8.82762817047 54.1432394662 34.3991884129
323 18 2 9.8253235361 53.8759952472 34.4806408282
324 18 2 10.848424556 53.903364334 34.6417781837
325 19 1 48.68117164 22.9925999476 56.6288541484
326 19 1 53.8018476702 21.3965569313 55.3062375201
327 19 2 48.4469393713 22.7069844047 57.0423037754
328 19 2 48.0763314878 21.9867087124 57.6882935083
329 19 2 47.8350034318 21.0802856494 58.128302612
330 19 2 47.7598651526 20.0676259938 58.3340322215
331 19 2 47.8726788456 19.0383237054 58.2985374211
332 19 2 48.1780753862 18.0834896752 58.0368602555
333 19 2 48.6631322379 17.2874472117 57.5846586876
334 19 2 49.2985513072 16.7200461964 56.99495647
335 19 2 50.0413293863 16.4302964541 56.3333101723
336 19 2 50.8386777804 16.4419006378 55.6718338746
337 19 2 51.6328338567 16.751093796 55.0826261619
338 19 2 52.3663259534 17.3269865372 54.6311985311
339 19 2 52.9872117682 18.1143805161 54.3705041925
340 19 2 53.4538127608 19.0387996145 54.3361115268
341 19 2 53.7385130397 20.013278241 54.5429621222
342 19 2 53.8302764774 20.9462880121 54.9840088881
343 20 1 7.01228784864 7.10438847478 53.2865822569
344 20 1 3.7416211745 4.06031855956 56.5353310805
345 20 2 6.77966489758 7.5671500449 53.0887947954
346 20 2 6.17138701123 8.2859755387 52.6566629479
347 20 2 5.37827548646 8.76293765907 52.1909041518
348 20 2 4.46220737972 8.96042870218 51.7490144338
349 20 2 3.49626691123 8.86631400591 51.3863142181
350 20 2 2.55808403372 8.49503799192 51.1509060174
351 20 2 1.72275866969 7.88630759518 51.0792900173
352 20 2 1.05601555417 7.10147308299 51.1930371824
353 20 2 0.608213600862 6.21793614208 51.4968231199
354 20 2 0.409755821678 5.32209492176 51.9780019111
355 20 2 0.468318173512 4.50146907352 52.6077587525
356 20 2 0.768149915265 3.83672256871 53.3437363487
357 20 2 1.27150924581 3.39431139317 54.1338956664
358 20 2 1.92210336827 3.22042626171 54.921259153
359 20 2 2.65021942802 3.33678245795 55.6491040886
360 20 2 3.37907865305 3.73864054421 56.2661327101
361 21 1 44.0377523226 52.651779884 15.1819738976
362 21 1 41.3890807334 48.1352602129 16.9436719237
363 21 2 43.8805776335 53.124544181 15.4252260809
364 21 2 43.3708172248 53.9337439078 15.8237108848
365 21 2 42.6197000291 54.5769539655 16.1328286474
366 21 2 41.6928869496 54.9898567091 16.3425399995
367 21 2 40.6720530997 55.1291263897 16.4518662004
368 21 2 39.6474433349 54.9763781808 16.4689783479
369 21 2 38.7096466749 54.539843906 16.4104526042
370 21 2 37.9413393573 53.8536217303 16.2997593229
371 21 2 37.4097491189 52.9745682036 16.1651237895
372 21 2 37.1605275675 51.977115938 16.0369535617
373 21 2 37.2135891599 50.9464892741 15.9450669019
374 21 2 37.561296052 49.9709363103 15.9159749221
375 21 2 38.1691542684 49.1336853246 15.9704651673
376 21 2 38.9789577357 48.5053587391 16.1217068858
377 21 2 39.9140936107 48.1375360753 16.374050688
378 21 2 40.8865253362 48.0580526186 16.7226319994
379 22 1 34.28615588 51.4579675634 85.045520198
380 22 1 37.4205701347 55.8947041897 86.0499137715
381 22 2 34.3521949515 51.2343366612 84.5425195532
382 22 2 34.4438376564 51.037739673 83.5294049249
383 22 2 34.5029330759 51.1452598866 82.5006206199
384 22 2 34.5430300104 51.5489869903 81.5472861178
385 22 2 34.579408921 52.2140122061 80.7536438506
386 22 2 34.6276891572 53.0816101316 80.1893807297
387 22 2 34.7024052942 54.0745914031 79.9032763703
388 22 2 34.8156823456 55.1043383003 79.9187569602
389 22 2 34.9761306006 56.078882014 80.231760025
390 22 2 35.1880608194 56.9112853581 80.811104712
391 22 2 35.4510913189 57.5275668609 81.6013338413
392 22 2 35.7601827616 57.8734439791 82.52776868
393 22 2 36.1060974785 57.9192808063 83.5033157086
394 22 2 36.4762414576 57.6627893066 84.4364049629
395 22 2 36.855812254 57.1292378631 85.2393363914
396 22 2 37.2291481941 56.3691481323 85.8362734803
397 23 1 28.9984959436 45.1208137784 62.1660765677
398 23 1 29.1028994085 39.7107892175 63.2790569036
399 23 2 28.5869985692 45.4014820015 62.4095449385
400 23 2 27.6839330899 45.7552402834 62.7739318609
401 23 2 26.6788972559 45.8522119285 63.0062021422
402 23 2 25.6626234523 45.6750529061 63.1023907489
403 23 2 24.7268683751 45.2314054633 63.0709361285
404 23 2 23.9560496537 44.5532015542 62.9319110675
405 23 2 23.4195514093 43.6937523282 62.7151931106
406 23 2 23.1654000781 42.7228889606 62.4577413022
407 23 2 23.2158869298 41.7205977283 62.2002274685
408 23 2 23.5655362778 40.7697294737 61.983329089
409 23 2 24.1816045737 39.9484479724 61.8440216533
410 23 2 25.0070648939 39.3231055138 61.8122084437
411 23 2 25.9658047918 38.9421950672 61.9079949312
412 23 2 26.969563743 38.8319302774 62.1398562153
413 23 2 27.9259778572 38.9938561608 62.5038645416
414 23 2 28.7469985992 39.4047082816 62.9840473061
415 24 1 59.7439221243 20.3398420061 10.9126872673
416 24 1 57.3685319858 16.8156872923 14.4419713737
417 24 2 59.420165981 20.5049062173 10.4939781153
418 24 2 58.7775195136 20.5826765463 9.68502366358
419 24 2 58.1233324536 20.3567708226 8.91401399717
420 24 2 57.5001894631 19.8495144245 8.25992396423
421 24 2 56.9478456204 19.108877092 7.79107150081
422 24 2 56.4996028506 18.2041006139 7.55889063359
423 24 2 56.1792745442 17.2193876231 7.59324340581
424 24 2 55.9990150304 16.246226752 7.89969803187
425 24 2 55.9582117421 15.3750536883 8.45902136946
426 24 2 56.0435410501 14.6870082036 9.22893196906
427 24 2 56.2301826763 14.2465384802 10.1479539151
428 24 2 56.4840819954 14.0955268312 11.1410201912
429 24 2 56.7650540231 14.2494722402 12.1263148385
430 24 2 57.0304461703 14.6960776699 13.0227302609
431 24 2 57.2390259122 15.3963709042 13.7572599664
432 24 2 57.354739023 16.288256762 14.2716529134
433 25 1 40.8477842148 38.8295269692 57.3752452711
434 25 1 42.9773653599 42.5047299821 53.8431413624
435 25 2 41.1393232884 38.7573630559 57.8412698694
436 25 2 41.8643439531 38.5952437255 58.5634280028
437 25 2 42.7695953438 38.4259180069 59.0380844384
438 25 2 43.7784261268 38.2827296624 59.225721216
439 25 2 44.804743984 38.1966401024 59.1129814499
440 25 2 45.7608626969 38.1934063357 58.7138867735
441 25 2 46.5654945116 38.2912332871 58.068559305
442 25 2 47.1511592999 38.4991144669 57.2395646235
443 25 2 47.470335193 38.8160122368 56.3062090835
444 25 2 47.4997900724 39.2309523875 55.3573112531
445 25 2 47.2426991159 39.724024409 54.4831063384
446 25 2 46.7283553882 40.2681962799 53.767021486
447 25 2 46.0094998566 40.8317783641 53.2780716212
448 25 2 45.1575141926 41.3813118365 53.0645689227
449 25 2 44.2559145236 41.8846183654 53.1497192957
450 25 2 43.3927391609 42.3137330814 53.5295072165
451 26 1 46.63976515 68.5677326928 32.0970257014
452 26 1 49.3580359129 65.8257422469 36.0480361437
453 26 2 46.2646564132 68.9320290316 32.2813167785
454 26 2 45.4897216913 69.4306641146 32.7549086302
455 26 2 44.6886574248 69.6594144475 33.3708788708
456 26 2 43.9433506421 69.6047020001 34.0884960104
457 26 2 43.330606226 69.2787856164 34.8577637158
458 26 2 42.9151463539 68.7186436548 35.623977843
459 26 2 42.7437112441 67.9826035089 36.3327125733
460 26 2 42.8407989103 67.1450252217 36.9347811815
461 26 2 43.2064322328 66.2895237662 37.3907192743
462 26 2 43.8161568729 65.5013477647 37.6743818643
463 26 2 44.623270221 64.8596093039 37.7753264157
464 26 2 45.5630782141 64.4300730803 37.6997646537
465 26 2 46.5587920271 64.2591621235 37.469996382
466 26 2 47.5285271688 64.3697264615 37.1223769157
467 26 2 48.3927670344 64.7589604012 36.7040033911
468 26 2 49.0816106316 65.3986582603 36.268421988
469 27 1 63.0529801658 74.2123029524 50.7771991304
470 27 1 59.9797869218 71.0092141745 47.4887805701
471 27 2 63.2673965574 73.955537526 51.2193288793
472 27 2 63.44660431 73.4030819197 52.0773075478
473 27 2 63.32829455 72.7863814891 52.9014030464
474 27 2 62.927792386 72.1444619326 53.6092076175
475 27 2 62.2861440103 71.5186476044 54.1289131106
476 27 2 61.4663754475 70.94879491 54.4058561036
477 27 2 60.5477479014 70.4696595018 54.4075003273
478 27 2 59.618533308 70.1077283941 54.1264022595
479 27 2 58.7679685841 69.8788057421 53.5808895823
480 27 2 58.0781219212 69.7865723361 52.8133906626
481 27 2 57.6164124892 69.8222501069 51.8865673201
482 27 2 57.4294653592 69.9654022232 50.8776033696
483 27 2 57.5388617525 70.1857958547 49.8711695231
484 27 2 57.9391719708 70.4461578132 48.95170588
485 27 2 58.5984502978 70.7055719044 48.1957254385
486 27 2 59.4611467665 70.9232083294 47.6648401395
487 28 1 59.0959803051 58.6415407651 34.6508757459
488 28 1 56.7247322797 58.9991367208 39.6275512422
489 28 2 58.7624175699 58.7599360025 34.2241439127
490 28 2 57.9948586843 58.8277378397 33.5315355968
491 28 2 57.0933024559 58.703535391 33.0363385351
492 28 2 56.1295386753 58.413179598 32.7907720477
493 28 2 55.1810271852 57.9976658353 32.8243022947
494 28 2 54.323837623 57.5093972921 33.1409565154
495 28 2 53.6257158763 57.0074085614 33.718955955
496 28 2 53.1399092265 56.5519847945 34.5127009409
497 28 2 52.9003130014 56.1991668708 35.4569271706
498 28 2 52.9183811065 55.9956434212 36.4726543782
499 28 2 53.1820820326 55.9744952846 37.4743851749
500 28 2 53.6569954951 56.1521802772 38.3778979074
501 28 2 54.2894497513 56.5270331071 39.1079232363
502 28 2 55.0114136363 57.0794171612 39.6050047355
503 28 2 55.7466974217 57.7735143294 39.8309181862
504 28 2 56.4178973058 58.5605897303 39.7721556126
505 29 1 32.0705530397 41.7786712075 22.7379698625
506 29 1 36.434330226 38.9142471989 24.5464263395
507 29 2 31.5814633824 41.5262758262 22.8048239326
508 29 2 30.7769425921 40.8737988366 22.826505426
509 29 2 30.1807476631 40.0323007831 22.7270939391
510 29 2 29.8494982104 39.0700344262 22.53275591
511 29 2 29.8156647771 38.0662602343 22.2783100774
512 29 2 30.0846092309 37.1040220043 22.0040538455
513 29 2 30.6340960444 36.2625776411 21.7520902837
514 29 2 31.416319004 35.6101750113 21.5624905438
515 29 2 32.3622586183 35.1978313331 21.4696414821
516 29 2 33.3879730606 35.0546830926 21.4991113892
517 29 2 34.4022492415 35.1853303313 21.6653195085
518 29 2 35.314916639 35.5694173648 21.9702217609
519 29 2 36.0450660997 36.1634881484 22.4031324678
520 29 2 36.5284244927 36.9049471802 22.941698322
521 29 2 36.7232130331 37.7177649131 23.5539358322
522 29 2 36.6139553067 38.5194076452 24.2011465323
523 30 1 49.9432933618 76.2342980997 74.2461239872
524 30 1 45.6551301647 76.3460121657 77.7270961824
525 30 2 49.9852868327 76.6754804807 73.9129930173
526 30 2 49.8374683786 77.4540025878 73.2455328727
527 30 2 49.4038715742 78.1225471119 72.5833455565
528 30 2 48.7187442259 78.6344438258 71.998527395
529 30 2 47.8392604771 78.9573005318 71.5561227226
530 30 2 46.8403095374 79.0759555234 71.308195265
531 30 2 45.8076697316 78.9938595346 71.2890826698
532 30 2 44.8301900347 78.7327612149 71.5122667209
533 30 2 43.991691725 78.3307247976 71.969144511
534 30 2 43.3633282991 77.838660647 72.6298125728
535 30 2 42.9971000204 77.3156849148 73.4457925006
536 30 2 42.9211142342 76.8237312605 74.354449627
537 30 2 43.1370234586 76.4219057643 75.284702006
538 30 2 43.6198747614 76.1610995655 76.1634993417
539 30 2 44.3203841535 76.0793502715 76.9224813281
540 30 2 45.1694286929 76.1983749315 77.5042085078
541 31 1 16.2832538322 63.7610402969 72.0131725572
542 31 1 12.417003743 61.4893704647 68.786778675
543 31 2 16.0895931878 64.0151406365 72.4662841993
544 31 2 15.5842355781 64.5959415551 73.159634032
545 31 2 14.9215095209 65.257521957 73.6029798971
546 31 2 14.1475126151 65.9278695765 73.7611344735
547 31 2 13.3184845003 66.5341730397 73.6249048639
548 31 2 12.4956807633 67.0094584259 73.2119305024
549 31 2 11.7397896559 67.2986937625 72.565075368
550 31 2 11.1054005222 67.3638050411 71.7485210467
551 31 2 10.6360281264 67.1871465627 70.841916752
552 31 2 10.360146398 66.7731092949 69.9331195116
553 31 2 10.2885931093 66.1477206479 69.1101862347
554 31 2 10.4135820415 65.3562721451 68.4533475593
555 31 2 10.7094126777 64.459191222 68.0276950447
556 31 2 11.1348127361 63.5265334266 67.8772482495
557 31 2 11.6367000286 62.631597044 68.0209424663
558 31 2 12.15502076 61.8442421533 68.450902821
559 32 1 7.19793930046 18.4909133634 71.2605992323
560 32 1 8.43683878713 16.2426407026 66.3689339569
561 32 2 7.25044003455 18.1497813703 71.6944819633
562 32 2 7.21806115348 17.3677498562 72.3733253401
563 32 2 7.03248445786 16.4528258339 72.8226863693
564 32 2 6.72636183885 15.4784534132 72.996862542
565 32 2 6.34333262637 14.5234952667 72.8752337133
566 32 2 5.93404598075 13.6650445076 72.4641415738
567 32 2 5.5515443572 12.9713978589 71.796311621
568 32 2 5.24642882774 12.4958305893 70.9278703179
569 32 2 5.06224692876 12.2717406148 69.933229316
570 32 2 5.03152341944 12.3096043685 68.898303032
571 32 2 5.17279573692 12.5960219009 67.9126777784
572 32 2 5.48892435842 13.0949382502 67.0614462105
573 32 2 5.96683207641 13.7509297552 66.4174513583
574 32 2 6.57869595111 14.4942557742 66.0346471792
575 32 2 7.28448329708 15.2472153579 65.9431807989
576 32 2 8.03560055551 15.9312294834 66.1466446811
577 33 1 17.9382432326 39.4827505742 -0.0682885303421
578 33 1 19.0520369539 34.1277832167 0.707455762566
579 33 2 17.8495186646 39.7725257354 0.395974213161
580 33 2 17.5343439091 40.1389952166 1.31238842302
581 33 2 17.0618165146 40.2427248365 2.22858056368
582 33 2 16.4879081542 40.0665228819 3.07299283042
583 33 2 15.877831105 39.6187126543 3.78060996221
584 33 2 15.3000943233 38.9323738233 4.29888520892
585 33 2 14.8202590367 38.0623273033 4.5925298272
586 33 2 14.4949630129 37.0801384734 4.64672955509
587 33 2 14.3667581791 36.0675941845 4.4684948924
588 33 2 14.4602321273 35.1092481068 4.08602211241
589 33 2 14.7797670207 34.2847138879 3.54612324691
590 33 2 15.3091401719 33.6614085825 2.90995929461
591 33 2 16.013002697 33.2884077675 2.24746555961
592 33 2 16.840101472 33.1919724345 1.6309772353
593 33 2 17.7279507183 33.3731553707 1.12863624488
594 33 2 18.608527414 33.8077052 0.798180287125