LAMMPS input file for bananas

648 atoms

2 atom types

0 42.5063427673 xlo xhi
0 42.5063427673 ylo yhi
0 42.5063427673 zlo zhi

Masses

 1 1
 2 1

Atoms

1 1 1 13.7800437654 32.9478689119 19.3618361124
2 1 1 15.007112359 37.9096297492 17.2658344137
3 1 2 13.6425084128 32.9486946685 19.898925428
4 1 2 13.5842703186 33.0738797071 20.9257589304
5 1 2 13.7796553257 33.3628938363 21.9013333988
6 1 2 14.2006555614 33.8056175235 22.738115658
7 1 2 14.7986989282 34.377921021 23.361223072
8 1 2 15.5090763202 35.0438637276 23.7152488956
9 1 2 16.2568396853 35.7589700783 23.7693124514
10 1 2 16.9636333401 36.4742833736 23.5198738211
11 1 2 17.5548358806 37.1408280514 22.9910564994
12 1 2 17.966361724 37.7140736789 22.232448602
13 1 2 18.1505023382 38.1579937821 21.3145830414
14 1 2 18.0802747469 38.448349563 20.3225086404
15 1 2 17.7518809561 38.5748992014 19.3480381594
16 1 2 17.1850541306 38.5423313687 18.4813798084
17 1 2 16.4212599692 38.3698378689 17.80291501
18 1 2 15.5199172168 38.0893643564 17.3758718474
19 2 1 35.0973165461 19.0648663662 24.2923533684
20 2 1 32.2956746616 15.7934643947 27.751648521
21 2 2 35.097856917 19.6024084248 24.4281098831
22 2 2 34.8662594497 20.5756328544 24.6976406494
23 2 2 34.3530286997 21.4294884148 24.9822015223
24 2 2 33.6063119008 22.0853326064 25.2750025297
25 2 2 32.6955379164 22.4825711366 25.568502633
26 2 2 31.7050889837 22.5841809277 25.855097073
27 2 2 30.7266094983 22.3800846713 26.1278105234
28 2 2 29.8506528729 21.8880693484 26.3809328726
29 2 2 29.1584278356 21.1521649931 26.610539686
30 2 2 28.714396471 20.2386314731 26.8148499068
31 2 2 28.5603986742 19.2299190797 26.9943881954
32 2 2 28.7118385555 18.217153404 27.1519371072
33 2 2 29.1562803972 17.291829483 27.2922834709
34 2 2 29.8545821362 16.5374722716 27.4217820812
35 2 2 30.7444630581 16.0220235659 27.5477764767
36 2 2 31.7461805183 15.7916492903 27.6779295958
37 3 1 23.1074723443 5.58349406332 5.60515949229
38 3 1 22.9641890456 4.60678325162 0.169766503004
39 3 2 23.2587391067 6.09790996018 5.74614261076
40 3 2 23.7210542448 7.01765829668 5.86352115149
41 3 2 24.3717516653 7.81855145711 5.77071477426
42 3 2 25.1429219499 8.43805530588 5.46255672274
43 3 2 25.9556749005 8.83016885835 4.95350897012
44 3 2 26.7273301702 8.96961714761 4.27634404893
45 3 2 27.378953356 8.8541549702 3.47915792225
46 3 2 27.8425506582 8.50477153035 2.62098616528
47 3 2 28.0672663343 7.96377733019 1.76642303039
48 3 2 28.0240180631 7.29094768047 0.97973385373
49 3 2 27.7081477213 6.55807434084 0.318997441535
50 3 2 27.1398459585 5.84242189279 -0.169187657781
51 3 2 26.3623118737 5.21968527957 -0.453950486788
52 3 2 25.4378155329 4.75709041442 -0.522961484295
53 3 2 24.4420222189 4.50726671829 -0.383556291898
54 3 2 23.4570957428 4.50345008872 -0.0620671298559
55 4 1 39.7249744755 15.7527217946 38.545060263
56 4 1 38.2791316589 11.0008270433 40.9631226865
57 4 2 39.3045721234 16.0417482107 38.3280183749
58 4 2 38.4652253984 16.37645322 37.8211459617
59 4 2 37.6119848333 16.4157407842 37.2347271383
60 4 2 36.808790099 16.1531728556 36.6352387624
61 4 2 36.1150193231 15.6098247076 36.0903489463
62 4 2 35.5800769316 14.8323639803 35.6627492895
63 4 2 35.2388905679 13.8887970497 35.404440707
64 4 2 35.1087275313 12.862270428 35.351993685
65 4 2 35.1876209089 11.8434921819 35.5232149785
66 4 2 35.4545488542 10.922464134 35.9155245735
67 4 2 35.8713506727 10.180278438 36.506190848
68 4 2 36.3862050668 9.68172624478 37.254402499
69 4 2 36.9383535086 9.46939216298 38.1049883836
70 4 2 37.4636382177 9.55977278521 38.9934462209
71 4 2 37.9003499709 9.9417730679 39.851821803
72 4 2 38.1948527333 10.5777176149 40.6149028388
73 5 1 35.8124143903 26.5842981894 33.6603991796
74 5 1 32.2200243264 29.4662139068 30.6096146103
75 5 2 35.8449868325 26.0450786692 33.5356476945
76 5 2 35.6715656358 25.0462893871 33.3216498681
77 5 2 35.2071605437 24.1394448058 33.1334722203
78 5 2 34.4925045066 23.407525412 32.9691227127
79 5 2 33.5911401794 22.9175677288 32.8244374356
80 5 2 32.5836281786 22.7145541162 32.6934601371
81 5 2 31.5602041978 22.8173127494 32.5689851199
82 5 2 30.6125542646 23.2168014801 32.443214021
83 5 2 29.825457805 23.8769320052 32.3084666119
84 5 2 29.2690602248 24.7378592184 32.1578808305
85 5 2 28.9924793438 25.7214359321 31.9860382404
86 5 2 29.0193284372 26.7383357844 31.7894579062
87 5 2 29.3455639494 27.6961950984 31.5669136719
88 5 2 29.9398540526 28.5080315847 31.3195459215
89 5 2 30.7464344597 29.1001725441 31.0507576363
90 5 2 31.6901911897 29.4189699376 30.7659042219
91 6 1 10.4295227371 34.7469073872 13.2811151337
92 6 1 8.44797668422 33.8711458483 8.19933315997
93 6 2 10.506412082 35.2798408161 13.4132195507
94 6 2 10.7650766582 36.2822378367 13.4549671411
95 6 2 11.1391302512 37.2195752207 13.2205902027
96 6 2 11.57927839 38.0147259577 12.7231417807
97 6 2 12.0302022622 38.6035229703 11.9996531832
98 6 2 12.4356008763 38.9406077713 11.1077586761
99 6 2 12.7433227464 39.0035647689 10.1204422738
100 6 2 12.9101193606 38.7949643881 9.11938544136
101 6 2 12.9055871675 38.3421287829 8.18752204739
102 6 2 12.7149387786 37.6946414952 7.4014791635
103 6 2 12.3403507992 36.9198280477 6.82459271155
104 6 2 11.8007654365 36.0966194022 6.50113456367
105 6 2 11.1301639684 35.3083576132 6.45227727942
106 6 2 10.3744694405 34.635199423 6.67416428356
107 6 2 9.58736090334 34.1468101883 7.13826138264
108 6 2 8.82538071058 33.8960140694 7.7939575804
109 7 1 20.0890062454 5.97419713541 28.4398412836
110 7 1 17.9071369772 2.37425862989 32.0172538002
111 7 2 20.0076475846 6.50779595071 28.5664693241
112 7 2 19.6311937515 7.43784640139 28.8248076333
113 7 2 18.9957656278 8.20611972554 29.1066537085
114 7 2 18.1611432626 8.74238694056 29.4054395729
115 7 2 17.2052627278 8.9975658006 29.7130532327
116 7 2 16.2171124533 8.94819451207 30.0205780644
117 7 2 15.2886221697 8.59857021347 30.3191055409
118 7 2 14.5062837586 7.98035730261 30.6005472199
119 7 2 13.9432677495 7.14970131147 30.8583719839
120 7 2 13.6527540206 6.18211139097 31.0882013342
121 7 2 13.663084596 5.16557785371 31.2882084791
122 7 2 13.9751803454 4.19255209213 31.4592848413
123 7 2 14.5624570494 3.35151988122 31.6049588069
124 7 2 15.3732484803 2.7189361366 31.7310741227
125 7 2 16.3355156401 2.35225625332 31.8452572541
126 7 2 17.3634129233 2.28469920018 31.9562222531
127 8 1 30.7402865333 34.297640433 20.3664922363
128 8 1 31.7657771955 33.663058616 25.7575650313
129 8 2 30.2059826059 34.3697408199 20.2372543339
130 8 2 29.1771384688 34.3130337268 20.1290228303
131 8 2 28.1864158956 34.0221255028 20.2144113506
132 8 2 27.3180452271 33.5345492635 20.5001591485
133 8 2 26.6451047548 32.9057638882 20.9747432652
134 8 2 26.2228598304 32.2040990918 21.6094288161
135 8 2 26.0837255764 31.5045273535 22.3608880987
136 8 2 26.2343123342 30.8818303758 23.1751497972
137 8 2 26.6548231495 30.4037829323 23.9925183231
138 8 2 27.3008582117 30.1249753783 24.7530149092
139 8 2 28.1074617776 30.0818378855 25.4018445134
140 8 2 28.9950427142 30.2893199294 25.8943902408
141 8 2 29.8766290177 30.7395276848 26.2002800538
142 8 2 30.6657950789 31.4024435265 26.3061551028
143 8 2 31.2845391466 32.2286620557 26.2168873492
144 8 2 31.6703929792 33.1538932701 25.9551354993
145 9 1 36.8229783663 12.3258976396 24.224910695
146 9 1 31.4194212519 13.277560813 23.5815610411
147 9 2 36.9514623466 11.8137366973 24.3939214168
148 9 2 37.0297418451 10.8994841166 24.8750290451
149 9 2 36.88131002 10.1051800351 25.5234880111
150 9 2 36.5069362422 9.49260822427 26.2705154953
151 9 2 35.9279838878 9.10698804482 27.0383444214
152 9 2 35.1844631234 8.9728528229 27.7473117171
153 9 2 34.3313840863 9.0918137029 28.3231193904
154 9 2 33.4337428574 9.44241279603 28.703606593
155 9 2 32.5605972425 9.98207900943 28.8444154154
156 9 2 31.7787723376 10.6510082876 28.7230339921
157 9 2 31.1467695998 11.3776145922 28.3408483974
158 9 2 30.7094345965 12.085054778 27.7230163089
159 9 2 30.4938694512 12.6982326403 26.9161739522
160 9 2 30.5069625575 13.1506437334 25.984185334
161 9 2 30.7347607207 13.3904370727 25.0023212077
162 9 2 31.143740954 13.3851412136 24.0503983464
163 10 1 31.5183674525 17.2822141868 34.9930341376
164 10 1 34.7727583959 15.3427754249 39.013669403
165 10 2 30.9749047414 17.2144952157 35.0793128179
166 10 2 30.0212288174 16.865237152 35.2841811856
167 10 2 29.2231585205 16.2582169802 35.5450649209
168 10 2 28.6520492531 15.4520293715 35.857067734
169 10 2 28.3585695265 14.5234225765 36.2106339676
170 10 2 28.3680826612 13.5603030277 36.5924195698
171 10 2 28.6783349883 12.6537229025 36.9865083687
172 10 2 29.2596612655 11.8895809614 37.3758627887
173 10 2 30.0576885842 11.3407931047 37.7438767804
174 10 2 30.9982923153 11.0606462837 38.0758894174
175 10 2 31.9943523704 11.0779415374 38.3605212004
176 10 2 32.9536939659 11.3943688545 38.5907112684
177 10 2 33.7874891072 11.9843531358 38.7643609773
178 10 2 34.4183530237 12.7973852957 38.8845251854
179 10 2 34.7873975836 13.7626260309 38.9591338116
180 10 2 34.8595987894 14.7953626332 39.0002690444
181 11 1 41.1185746162 25.4162048256 1.5024910057
182 11 1 37.4097210861 22.2031781041 -1.03499906152
183 11 2 41.4523598369 25.1520071238 1.85769318592
184 11 2 41.8739775369 24.57292029 2.60625645327
185 11 2 42.0024670858 23.9157165786 3.39684087548
186 11 2 41.8292234777 23.2237059312 4.14821157451
187 11 2 41.3731438771 22.5433708489 4.78270789835
188 11 2 40.6789051937 21.9201296362 5.23332198195
189 11 2 39.8128919008 21.3941966437 5.44980633494
190 11 2 38.8571452682 20.9969168383 5.40325376615
191 11 2 37.90188552 20.7479087922 5.08873219679
192 11 2 37.0372885018 20.6532765036 4.52573420625
193 11 2 36.345266394 20.7050530325 3.75640033558
194 11 2 35.892001635 20.8819266669 2.84167808984
195 11 2 35.7219145689 21.1511834277 1.85576673588
196 11 2 35.8536146501 21.4716888609 0.879354237475
197 11 2 36.2782042412 21.7976373331 -0.00773723687026
198 11 2 36.9600896086 22.0827270921 -0.733826891275
199 12 1 31.2601040966 36.4589455923 7.03589464169
200 12 1 26.582806659 34.4136898744 4.92454228124
201 12 2 31.4869861098 36.8722043245 6.74413556223
202 12 2 31.8844579939 37.4958526989 6.01851250753
203 12 2 32.2025586112 37.8850518398 5.11254008124
204 12 2 32.3967424122 38.0140261711 4.1030311489
205 12 2 32.4337585344 37.8807189125 3.07623565189
206 12 2 32.2946815287 37.5069795498 2.11997915572
207 12 2 31.9766363644 36.9365723124 1.31565778453
208 12 2 31.4930604798 36.2311871809 0.73081918189
209 12 2 30.872478996 35.4648170099 0.413005723661
210 12 2 30.1559047284 34.7170132777 0.385421157471
211 12 2 29.3930999779 34.0656351812 0.644815643159
212 12 2 28.6380408305 33.5797529783 1.16178196701
213 12 2 27.9439973811 33.3133524185 1.88343593069
214 12 2 27.3586783069 33.3004140862 2.73823660458
215 12 2 26.9198823487 33.5518161613 3.6425070923
216 12 2 26.6520530572 34.0543429019 4.50806145614
217 13 1 15.559710111 7.17480874719 35.5491854885
218 13 1 20.6131209242 7.10181240632 37.7798135948
219 13 2 15.4061462346 7.66238102587 35.334539275
220 13 2 15.188253806 8.65686911015 35.1422729208
221 13 2 15.0912062823 9.68469963973 35.2294290554
222 13 2 15.140275105 10.6583445006 35.5802252166
223 13 2 15.3474136008 11.4952144576 36.1548488584
224 13 2 15.7101674684 12.1251869426 36.8930861582
225 13 2 16.2118984813 12.4969975389 37.7198103459
226 13 2 16.8233010174 12.5829125961 38.5518293078
227 13 2 17.5050731887 12.3812570778 39.3054683258
228 13 2 18.2114991029 11.9165672373 39.9041968044
229 13 2 18.8946157449 11.2373542031 40.2856038294
230 13 2 19.5085846775 10.4116823195 40.4070867565
231 13 2 20.0138700925 9.52096526345 40.2497343281
232 13 2 20.3808423935 8.65254540559 39.8200503839
233 13 2 20.5924788552 7.89173278647 39.1493610535
234 13 2 20.6459151986 7.31402933445 38.2909594634
235 14 1 37.9692789696 16.3518636306 38.3204409741
236 14 1 36.998281546 10.9139524753 38.3858422867
237 14 2 37.5254550618 16.6695812754 38.4176902679
238 14 2 36.5974990588 17.1301578827 38.4324163171
239 14 2 35.6085743493 17.3726693831 38.2409323692
240 14 2 34.6396239914 17.3648488319 37.8741571601
241 14 2 33.7697704343 17.097246382 37.3789867559
242 14 2 33.0691037188 16.584090612 36.8140201014
243 14 2 32.5922929574 15.8619916292 36.2442178831
244 14 2 32.3736033904 14.9866041565 35.7349815361
245 14 2 32.4237732014 14.0275547527 35.3461920785
246 14 2 32.7290347602 13.0620955382 35.1267521162
247 14 2 33.2523695054 12.1680628704 35.110128501
248 14 2 33.9368820879 11.4167827681 35.3113019172
249 14 2 34.7109862292 10.8665697349 35.7254014315
250 14 2 35.4949296198 10.5574115488 36.3281484659
251 14 2 36.208063129 10.5073244826 37.0780697252
252 14 2 36.7761917573 10.7107111691 37.9202773769
253 15 1 40.4973129435 33.4050069678 3.2857942264
254 15 1 39.9923817414 33.3369740901 8.7865584524
255 15 2 40.4201608902 33.9009426677 3.05025881432
256 15 2 40.0792731145 34.8285355219 2.73910445968
257 15 2 39.5179229881 35.6926007227 2.6308114522
258 15 2 38.7956259708 36.4260895712 2.74799139541
259 15 2 37.9865674013 36.9738550539 3.09270463597
260 15 2 37.1728407018 37.2976783456 3.64627246868
261 15 2 36.4369647821 37.3797523535 4.37097965045
262 15 2 35.8543626617 37.2243047857 5.21351204396
263 15 2 35.4864868627 36.8572128071 6.10981605875
264 15 2 35.375218177 36.323644405 6.99093696479
265 15 2 35.5390483441 35.6839414478 7.78930393186
266 15 2 35.9713945781 35.0081196849 8.44488893006
267 15 2 36.6411995714 34.3694869982 8.91067812435
268 15 2 37.4957622854 33.8379615848 9.15695705994
269 15 2 38.4655415086 33.4736991001 9.17401905541
270 15 2 39.4704943529 33.3216096307 8.9730499408
271 16 1 16.4731280178 23.7883952517 14.4769005984
272 16 1 16.352775096 27.7862489499 18.2875005568
273 16 2 16.7694563988 23.3411853672 14.6168091326
274 16 2 17.4890745901 22.6643588203 14.9290678317
275 16 2 18.362394018 22.2463216863 15.2978606498
276 16 2 19.3057518402 22.1235035005 15.7082771745
277 16 2 20.2291014019 22.30542538 16.141613104
278 16 2 21.044219748 22.7738321994 16.5770750939
279 16 2 21.6727489093 23.4843564968 16.993676015
280 16 2 22.053338022 24.3705624493 17.3721478742
281 16 2 22.1472352952 25.3500013207 17.6966980405
282 16 2 21.9418201328 26.3317264434 17.9564487011
283 16 2 21.4517534673 27.2245827641 18.1464283448
284 16 2 20.7176414549 27.9455153834 18.2680249023
285 16 2 19.8023343327 28.4271397876 18.3288592398
286 16 2 18.7851977881 28.6238837673 18.3420905373
287 16 2 17.7548789879 28.5161412023 18.3252168648
288 16 2 16.8012266264 28.1120591072 18.2984802799
289 17 1 7.31063115783 34.199730287 34.5795973681
290 17 1 8.09942028896 29.1074489355 36.5706959103
291 17 2 7.16156011175 34.5775850793 34.9569369596
292 17 2 6.72171461751 35.1226727652 35.720393158
293 17 2 6.11717831028 35.4109755444 36.5108786873
294 17 2 5.41366748252 35.4110016582 37.2714853699
295 17 2 4.68591968969 35.1175349957 37.9480284057
296 17 2 4.01088162185 34.5521105279 38.4939851708
297 17 2 3.46069561851 33.7610514532 38.8747356314
298 17 2 3.09612408718 32.8112469611 39.0707178663
299 17 2 2.96101117239 31.7840554615 39.0792110846
300 17 2 3.07828647901 30.7678889836 38.9145836179
301 17 2 3.44787510015 29.850154655 38.6069832856
302 17 2 4.04670444464 29.1092877761 38.1995895019
303 17 2 4.83080724211 28.6076026519 37.7446775869
304 17 2 5.73932904212 28.3856128099 37.2988540118
305 17 2 6.70007493472 28.4583383 36.9178968697
306 17 2 7.63608992347 28.8139366574 36.6516718517
307 18 1 28.448664003 2.82616068258 10.435075444
308 18 1 26.0784469759 2.18410122141 15.383592591
309 18 2 28.5005718617 3.35206388836 10.267406185
310 18 2 28.369353974 4.34698562565 10.009796764
311 18 2 27.9567197577 5.28529207051 9.85891922994
312 18 2 27.3047193311 6.09037004472 9.84495819945
313 18 2 26.4772204028 6.69774978911 9.98561871589
314 18 2 25.5540869006 7.06098120973 10.2845124818
315 18 2 24.6238995881 7.1558676798 10.7308286621
316 18 2 23.7758821652 6.98267149756 11.3003192626
317 18 2 23.0917687655 6.56608997848 11.9575092697
318 18 2 22.6383541093 5.95300436099 12.6589301037
319 18 2 22.4614053428 5.20820670684 13.3570816629
320 18 2 22.5814904856 4.40849427794 14.0047618314
321 18 2 22.99210371 3.6356696711 14.5593688258
322 18 2 23.6602583305 2.96908473004 14.9867842334
323 18 2 24.5294934514 2.47840783688 15.264482815
324 18 2 25.5250202271 2.21727382535 15.3835856199
325 19 1 14.1595960512 14.2148441051 7.78230922867
326 19 1 13.7178105584 11.5887547601 12.6223992476
327 19 2 14.1152759916 14.7667395191 7.81109763625
328 19 2 13.8378836301 15.749235334 7.98774831569
329 19 2 13.3385239874 16.5927799302 8.32319201083
330 19 2 12.672032428 17.2242979055 8.80321707204
331 19 2 11.908477944 17.5900395174 9.40043364459
332 19 2 11.1267765537 17.6604798287 10.0767701807
333 19 2 10.4074983173 17.4330098265 10.7869435595
334 19 2 9.82552359144 16.9321742266 11.4825865222
335 19 2 9.44321788468 16.2074342885 12.1166562186
336 19 2 9.30474740822 15.3286595537 12.6477220373
337 19 2 9.43205344372 14.3797594236 13.0437418949
338 19 2 9.82285245412 13.451035042 13.2849827864
339 19 2 10.450844222 12.6309485873 13.3658193961
340 19 2 11.2681090439 11.998060181 13.2952468296
341 19 2 12.2094754836 11.6138673429 13.0960607344
342 19 2 13.198460574 11.5171996566 12.8027795372
343 20 1 21.6543656095 7.26773338354 40.0082048783
344 20 1 17.3596561586 9.96414565273 42.1997391965
345 20 2 22.1097001464 7.57510071488 39.9335230785
346 20 2 22.8110688244 8.2971792896 39.6882996689
347 20 2 23.2622421378 9.1620134824 39.339079865
348 20 2 23.4219178247 10.1018825057 38.9333707264
349 20 2 23.2753628528 11.0422263477 38.5238281642
350 20 2 22.8357562959 11.9084417181 38.1634574962
351 20 2 22.1429880964 12.6326819387 37.9007821532
352 20 2 21.2600232038 13.1600409867 37.7754208983
353 20 2 20.267162488 13.4535580319 37.8144766825
354 20 2 19.2547235292 13.4975863178 38.0300662833
355 20 2 18.3148084123 13.2992193215 38.4182158923
356 20 2 17.5329088678 12.8876442019 38.9592233178
357 20 2 16.9801139291 12.311481469 39.6194537867
358 20 2 16.7066303572 11.6343533533 40.354405664
359 20 2 16.7372064283 10.9290848104 41.1127666582
360 20 2 17.0688761952 10.2710657206 41.8410907992
361 21 1 28.5342726823 7.66161444727 33.8555523164
362 21 1 30.6800565686 11.5196566198 30.5345414507
363 21 2 28.0828460818 7.40782160878 33.657600788
364 21 2 27.164319162 7.15354242916 33.2512752934
365 21 2 26.2260583166 7.20337708362 32.8146597826
366 21 2 25.3578676272 7.55120246565 32.3688880455
367 21 2 24.6431644681 8.16373441039 31.9359284373
368 21 2 24.1513762356 8.9835614573 31.5365815221
369 21 2 23.931612226 9.93437775132 31.1885841567
370 21 2 24.0081874548 10.9279381176 30.9049928239
371 21 2 24.3784064081 11.8721013734 30.6929935686
372 21 2 25.0128087311 12.6792287505 30.5532470092
373 21 2 25.8578544612 13.2741719348 30.479828124
374 21 2 26.840804052 13.6011226343 30.4607663012
375 21 2 27.8763483891 13.6286993557 30.4791364278
376 21 2 28.8743844873 13.3528077434 30.5146015688
377 21 2 29.7482281371 12.7970137698 30.5452666245
378 21 2 30.422514939 12.0103957589 30.5496740098
379 22 1 30.8354001189 7.54785300849 37.2872383495
380 22 1 30.4715407278 5.26563569355 42.3049152554
381 22 2 30.7453771553 8.09471071038 37.2722681135
382 22 2 30.3837894464 9.06108554746 37.3662043377
383 22 2 29.8078773572 9.88278816918 37.6242354951
384 22 2 29.0786409854 10.4907197257 38.0390650357
385 22 2 28.271055527 10.8352660283 38.589104656
386 22 2 27.4672374881 10.8908197504 39.2404420152
387 22 2 26.7489599844 10.6581144664 39.9499317542
388 22 2 26.1901993405 10.164157789 40.6691280799
389 22 2 25.8503923456 9.45976969694 41.3487004698
390 22 2 25.7690187491 8.61495043001 41.9429300174
391 22 2 25.9620027866 7.71250015427 42.4138765879
392 22 2 26.4202617288 6.84047194819 42.7348369605
393 22 2 27.110533748 6.08414599991 42.8927787556
394 22 2 27.9784096445 5.518256546 42.8895283009
395 22 2 28.9532920998 5.20018004558 42.7416041672
396 22 2 29.9548304338 5.16470546938 42.4787115442
397 23 1 19.4163386896 25.9602619613 28.3509714027
398 23 1 16.2695628278 24.114010643 32.499121449
399 23 2 19.3065428841 26.4784475511 28.1872333081
400 23 2 18.8796030117 27.3687276361 27.8732687771
401 23 2 18.1964874236 28.0937007685 27.5882827041
402 23 2 17.3157556264 28.5959628513 27.3749887456
403 23 2 16.313979316 28.8384093045 27.269566013
404 23 2 15.2787630723 28.8076170482 27.2983614443
405 23 2 14.3007594355 28.5150679807 27.4754883503
406 23 2 13.4654061699 27.9961024341 27.8015400244
407 23 2 12.8451388394 27.3066979971 28.2635356653
408 23 2 12.4927885001 26.5183673081 28.8361035428
409 23 2 12.4367662902 25.7116398686 29.4837935624
410 23 2 12.6784738311 24.9687219951 30.1643084477
411 23 2 13.192175473 24.3660039323 30.832359023
412 23 2 13.9273440308 23.9670970873 31.4437922014
413 23 2 14.8132662022 23.8170360191 31.9596154204
414 23 2 15.7654878956 23.9381736595 32.3495507098
415 24 1 11.1250259941 9.45374906432 19.3968907531
416 24 1 9.26731839052 5.93799288657 23.2317795416
417 24 2 11.0134797712 9.98772925464 19.4959068355
418 24 2 10.585923768 10.9061804962 19.7129164946
419 24 2 9.91079877742 11.6488575238 19.9699905909
420 24 2 9.05200415136 12.1490783142 20.2627378577
421 24 2 8.09018023817 12.3622600826 20.5835155141
422 24 2 7.11535823033 12.2699828834 20.9221258842
423 24 2 6.2187540619 11.8816685398 21.2667458878
424 24 2 5.48445431993 11.2337218694 21.6050046827
425 24 2 4.9817519768 10.3862124823 21.9251112341
426 24 2 4.75883052102 9.41739959705 22.2169290353
427 24 2 4.83837216097 8.41659892172 22.4729000237
428 24 2 5.21549040228 7.47604176598 22.6887334781
429 24 2 5.85817543872 6.68246840371 22.863797106
430 24 2 6.71021176049 6.10922192888 23.0011746757
431 24 2 7.69630204766 5.80956322852 23.107384939
432 24 2 8.72893031967 5.81181639527 23.1917874642
433 25 1 38.3276574769 11.6525328998 31.3338030435
434 25 1 36.0652856137 16.688123073 31.5399491616
435 25 2 38.8127428424 11.6251457774 31.0667380294
436 25 2 39.6023657213 11.6889918756 30.3990035043
437 25 2 40.184209007 11.9106192287 29.5708792876
438 25 2 40.5135829669 12.286278224 28.6632212435
439 25 2 40.5688097725 12.7981796762 27.7641345322
440 25 2 40.353199376 13.4161162643 26.9609430599
441 25 2 39.8947478164 14.1002158479 26.3322301379
442 25 2 39.2435854557 14.8045757066 25.940675824
443 25 2 38.4674077306 15.4814464498 25.8273438027
444 25 2 37.6453048937 16.0855842467 26.0079385403
445 25 2 36.8605531492 16.5783746798 26.4713738646
446 25 2 36.1930242489 16.9313523463 27.1807834398
447 25 2 35.7119053956 17.1287954035 28.0768810345
448 25 2 35.4693930146 17.1691585725 29.0833643036
449 25 2 35.4959351889 17.0652139865 30.1138695424
450 25 2 35.7974563982 16.8428870448 31.0798435081
451 26 1 34.418927266 25.9357171152 20.3415362732
452 26 1 35.2854137474 24.7222744207 15.0222553946
453 26 2 34.8783736092 25.9824965924 20.6482972979
454 26 2 35.7899943279 25.8617841035 21.1256086966
455 26 2 36.7072736924 25.4883959332 21.4299602252
456 26 2 37.5586081354 24.9050212475 21.5213585484
457 26 2 38.2784047929 24.1734889221 21.3792204466
458 26 2 38.8130601186 23.3691320057 21.0042489212
459 26 2 39.1258457037 22.5739213135 20.4183691178
460 26 2 39.2002559731 21.8689940072 19.6627299077
461 26 2 39.041512625 21.327258159 18.7939532786
462 26 2 38.6760886862 21.0067473757 17.8789733914
463 26 2 38.1492955673 20.945331191 16.9889357106
464 26 2 37.5211530482 21.1572633583 16.1927122851
465 26 2 36.8609186357 21.6318826593 15.5506242453
466 26 2 36.240774927 22.3345846456 15.1089436932
467 26 2 35.7292503588 23.2099757417 14.8956761238
468 26 2 35.3849730234 24.1869222212 14.9180077992
469 27 1 11.2524611227 26.3343822541 20.6454308449
470 27 1 5.98117971443 27.0146613902 22.151685695
471 27 2 11.3429543292 25.9142556359 20.2951649569
472 27 2 11.3877604807 25.0063169826 19.7980836539
473 27 2 11.2548779655 24.0129556849 19.5353564559
474 27 2 10.940956231 23.0257100563 19.5195696083
475 27 2 10.4591459657 22.1355609832 19.7408014037
476 27 2 9.83790044908 21.4246392608 20.1675265188
477 27 2 9.11838211085 20.95873959 20.7494894634
478 27 2 8.3507106859 20.7813235668 21.4222852342
479 27 2 7.58939493424 20.9095582736 22.1132296584
480 27 2 6.88836431325 21.3327515458 22.7479843622
481 27 2 6.29605345177 22.0133265339 23.2573325144
482 27 2 5.85098746316 22.8902467329 23.5834877558
483 27 2 5.57827048413 23.8845792967 23.6853612716
484 27 2 5.48729749987 24.9066895557 23.5423069266
485 27 2 5.57089801616 25.864410978 23.1560031055
486 27 2 5.80598963082 26.6714459018 22.5502997329
487 28 1 2.35443165105 5.81965741734 18.3594819964
488 28 1 2.28995320834 8.25249752207 13.4001350014
489 28 2 2.22206605718 6.15091324393 18.7838998506
490 28 2 2.13602776447 6.91205737521 19.4815437675
491 28 2 2.25414423856 7.80530823349 19.9930136238
492 28 2 2.55169927518 8.76001268665 20.2640310005
493 28 2 2.98762132464 9.69991627162 20.2622340795
494 28 2 3.50822705388 10.5501135849 19.9801273368
495 28 2 4.05211443877 11.24387571 19.4357647393
496 28 2 4.55575939447 11.7287323795 18.6711041742
497 28 2 4.95930582603 11.9712545001 17.7481830997
498 28 2 5.21202135142 11.9601011249 16.7434639963
499 28 2 5.27692142257 11.7070531503 15.7408650164
500 28 2 5.13414036809 11.245939519 14.8241110687
501 28 2 4.78274209609 10.6295538022 14.0691025165
502 28 2 4.24080541649 9.92484220679 13.536997063
503 28 2 3.54377620579 9.20680160718 13.2686353893
504 28 2 2.74123661017 8.55164378105 13.2808186361
505 29 1 32.86043909 23.821178314 26.9242049202
506 29 1 32.9377952081 29.3085291943 27.5574405863
507 29 2 32.3729213602 23.6113890666 26.7639035701
508 29 2 31.3783688844 23.3472895361 26.6432104796
509 29 2 30.3502917176 23.2814350711 26.7535306485
510 29 2 29.3762737628 23.4331998065 27.0724452139
511 29 2 28.5389715704 23.8021224686 27.5585224908
512 29 2 27.9085804144 24.3679484193 28.15509436
513 29 2 27.5364361809 25.0924758119 28.7954214156
514 29 2 27.4503362393 25.9230375873 29.4087760833
515 29 2 27.6520057863 26.797301936 29.92688925
516 29 2 28.1169405987 27.6489536758 30.2901728107
517 29 2 28.7966405282 28.4137387032 30.4531509653
518 29 2 29.6230301601 29.0353205834 30.388605216
519 29 2 30.5146637051 29.4704154658 30.0900552607
520 29 2 31.3841485661 29.6927372911 29.5723496553
521 29 2 32.1461109388 29.6953936956 28.8703124076
522 29 2 32.7249774068 29.4915142315 28.0355688616
523 30 1 10.7092361006 20.2487606043 38.1268144976
524 30 1 8.04423302057 16.5859073467 41.2889744647
525 30 2 10.6304777153 20.7793586841 38.266972917
526 30 2 10.2559572032 21.7107242107 38.5233762184
527 30 2 9.61674331626 22.4884794636 38.7682279788
528 30 2 8.77085884775 23.0407047738 38.9983946225
529 30 2 7.79516406199 23.3160369241 39.2120810827
530 30 2 6.77835108681 23.2883507683 39.4089944176
531 30 2 5.81285986307 22.9591404694 39.5903705107
532 30 2 4.9864524912 22.3573833099 39.7588614238
533 30 2 4.37421395023 21.53689849 39.9182936682
534 30 2 4.03170830271 20.571441652 40.0733194287
535 30 2 3.98991417886 19.5479822497 40.2289925295
536 30 2 4.25240115726 18.5587765159 40.3903077911
537 30 2 4.7950044073 17.6929585531 40.5617457666
538 30 2 5.56802724887 17.028415998 40.7468643503
539 30 2 6.50077087198 16.624690772 40.9479744859
540 30 2 7.50797834428 16.5175519942 41.1659295299
541 31 1 17.2888253103 33.5416540622 20.7734056507
542 31 1 18.1141616773 28.1080667952 21.3328163717
543 31 2 17.193399904 33.8134191526 21.2471348092
544 31 2 16.8556240016 34.1516858523 22.1663372302
545 31 2 16.3484759597 34.2355521 23.0659023069
546 31 2 15.7301641745 34.0484625184 23.8759257855
547 31 2 15.0690293201 33.5985586304 24.5346648894
548 31 2 14.4373152793 32.91793678 24.9941660087
549 31 2 13.904584306 32.0597226371 25.2246355429
550 31 2 13.5313766123 31.0932289343 25.2171555085
551 31 2 13.3636922896 30.0976377966 24.9844963894
552 31 2 13.4287985233 29.1547835027 24.5599531408
553 31 2 13.7327442619 28.3416935086 23.9943104438
554 31 2 14.2598088714 27.7235676014 23.351213817
555 31 2 14.973935029 27.3478351127 22.7013684976
556 31 2 15.8220152518 27.239831862 22.1160948481
557 31 2 16.7387325018 27.4004908641 21.660827696
558 31 2 17.6525136595 27.8062572878 21.3891521239
559 32 1 42.4427746746 26.0289456035 23.7823996389
560 32 1 38.7512015284 23.9208639933 27.3103268904
561 32 2 42.2842461124 26.4965058951 23.5301345864
562 32 2 41.7935697206 27.2468151094 23.0107861748
563 32 2 41.082518833 27.7846270008 22.4829462219
564 32 2 40.2065923717 28.0700132731 22.0088602368
565 32 2 39.2363172271 28.0860535507 21.645874198
566 32 2 38.2508199196 27.8403776255 21.4412076208
567 32 2 37.3306144291 27.3644700217 21.4276496248
568 32 2 36.5502635611 26.7108002659 21.6205702932
569 32 2 35.9715827458 25.9480404295 22.0165197308
570 32 2 35.6380057272 25.1548058532 22.5935425127
571 32 2 35.5706256935 24.4124895689 23.3131788627
572 32 2 35.7662726889 23.7978435421 24.1239701589
573 32 2 36.1978025471 23.3759829358 24.96614925
574 32 2 36.8165710094 23.1944510369 25.7770880708
575 32 2 37.5568675185 23.2788858133 26.4970060232
576 32 2 38.3419045608 23.630683081 27.0744188182
577 33 1 17.7888918181 35.0062940219 35.1137053755
578 33 1 16.2155589654 36.0952850726 40.2960516865
579 33 2 17.8550128234 34.4681589777 34.9978594653
580 33 2 18.1094143918 33.4640230474 34.9768621629
581 33 2 18.5006897677 32.5357627398 35.2191149083
582 33 2 18.9786782615 31.760075056 35.7123548379
583 33 2 19.4853155144 31.1997504103 36.4214422772
584 33 2 19.9599259101 30.8979494516 37.2915636278
585 33 2 20.3447529944 30.8742690858 38.2532274811
586 33 2 20.5902238222 31.1229562701 39.2285985737
587 33 2 20.6594673987 31.6134323874 40.1385922641
588 33 2 20.5316753719 32.2930804058 40.9100828863
589 33 2 20.2039986585 33.09204078 41.4825689588
590 33 2 19.6918071303 33.9295789624 41.8136877329
591 33 2 19.0272886909 34.7214441414 41.883076444
592 33 2 18.2565154352 35.3875484775 41.6942283231
593 33 2 17.4352443001 35.859266896 41.2741741985
594 33 2 16.6238349698 36.0856920789 40.6710187074