LAMMPS input file for bananas

4320 atoms

2 atom types

0 126.992084157 xlo xhi
0 126.992084157 ylo yhi
0 126.992084157 zlo zhi

Masses

 1 1
 2 1

Atoms

1 1 1 33.5290540129 53.5259898987 23.0711229509
2 1 1 34.5105051519 58.9033058223 23.8706341647
3 1 2 33.2113855519 53.2865763315 23.457321709
4 1 2 32.7695678125 52.9397478232 24.3279290155
5 1 2 32.5491652495 52.7627726841 25.3247000633
6 1 2 32.5575083114 52.7856606542 26.3604879495
7 1 2 32.7810778943 53.020204485 27.3445894911
8 1 2 33.1867375724 53.4589050621 28.1910125771
9 1 2 33.7247538941 54.0756549294 28.8263141195
10 1 2 34.3333294537 54.8281179139 29.1962941952
11 1 2 34.9442355596 55.6615879546 29.2709362232
12 1 2 35.4890310969 56.5139754138 29.0471428965
13 1 2 35.9053007525 57.3214663818 28.5490184928
14 1 2 36.1423440038 58.0243391441 27.8256718344
15 1 2 36.1657963362 58.5724076558 26.94674015
16 1 2 35.960761476 58.929595866 25.9960418278
17 1 2 35.5331691468 59.0772259528 25.0639365931
18 1 2 34.9092345905 59.0157207573 24.2390894608
19 2 1 85.7878680241 35.2775592785 100.085419157
20 2 1 81.8780682706 31.3785281594 100.255752009
21 2 2 85.9277177367 35.4898044956 100.578141811
22 2 2 85.956622884 35.9131288096 101.523346037
23 2 2 85.6815041425 36.323944037 102.433835212
24 2 2 85.1267909362 36.6692570332 103.23788882
25 2 2 84.3423969774 36.9020450072 103.873487662
26 2 2 83.399170765 36.9855415229 104.29396674
27 2 2 82.3824379333 36.8965876613 104.472268649
28 2 2 81.3842240487 36.627742895 104.403409785
29 2 2 80.4948667247 36.1879632711 104.104934587
30 2 2 79.7947815905 35.6017850926 103.61531641
31 2 2 79.347132621 34.9070884992 102.990450781
32 2 2 79.1920749094 34.1516447941 102.29856067
33 2 2 79.3430946379 33.3887622175 101.613978149
34 2 2 79.7857798479 32.6724270427 101.010369225
35 2 2 80.4791340517 32.0523828718 100.554019376
36 2 2 81.3593129531 31.5695966392 100.297791808
37 3 1 45.7331714893 115.428174126 29.7712586
38 3 1 42.0877262955 112.858180005 33.0306834901
39 3 2 45.6963856323 115.981371789 29.7704012993
40 3 2 45.3996509594 116.973175017 29.7288693713
41 3 2 44.8280057095 117.834069299 29.6544868829
42 3 2 44.0296012741 118.489259479 29.5724734822
43 3 2 43.0732575384 118.882699778 29.5087443551
44 3 2 42.0421901329 118.982202221 29.4875481243
45 3 2 41.0264255506 118.782370484 29.5292566531
46 3 2 40.1145954733 118.305091751 29.6485082039
47 3 2 39.3858582303 117.597541759 29.8528731999
48 3 2 38.9026837285 116.727884857 30.1421642013
49 3 2 38.7051594873 115.779061001 30.5084529899
50 3 2 38.8073367681 114.841226008 30.936793205
51 3 2 39.1959498399 114.003534086 31.4065826641
52 3 2 39.8316251148 113.346011672 31.8934411971
53 3 2 40.6524699454 112.932263233 32.3714328333
54 3 2 41.5797139743 112.803673889 32.8154297959
55 4 1 12.9418513889 81.2498103447 14.4740730068
56 4 1 15.5894077599 78.4567012653 18.4372760036
57 4 2 12.3900468439 81.2628167154 14.5262665553
58 4 2 11.3824985928 81.0543340073 14.6480511743
59 4 2 10.4846958594 80.5624293106 14.8075191408
60 4 2 9.77639371891 79.8336632755 15.0091578152
61 4 2 9.3200747742 78.9361858301 15.2536108106
62 4 2 9.15525403326 77.9535244968 15.5376193292
63 4 2 9.29487722193 76.9769710816 15.8543191927
64 4 2 9.72414081555 76.09726067 16.1938664944
65 4 2 10.4018413407 75.3963013667 16.5443348447
66 4 2 11.2641309617 74.9397085907 16.8928024293
67 4 2 12.2303370401 74.7708244048 17.2265297986
68 4 2 13.2103152301 74.9067670033 17.5341210342
69 4 2 14.1126658948 75.3368704335 17.8065624563
70 4 2 14.8530649387 76.0236567691 18.0380441968
71 4 2 15.3619497236 76.9062521233 18.226489753
72 4 2 15.5908595174 77.9059351403 18.3737452554
73 5 1 10.647653566 13.1121432095 106.930893228
74 5 1 7.40413243593 17.5026943599 107.779788002
75 5 2 11.1914276715 13.2202579025 106.929304679
76 5 2 12.1464338584 13.5907915929 106.774005038
77 5 2 12.9467075881 14.1609919125 106.445548703
78 5 2 13.5207049033 14.8920483722 105.987800359
79 5 2 13.8175063371 15.7304888759 105.456409315
80 5 2 13.8114580861 16.6130535585 104.913737212
81 5 2 13.5045102865 17.4724607543 104.423173933
82 5 2 12.9260392639 18.2435395403 104.043359777
83 5 2 12.1301699603 18.8691698922 103.822840559
84 5 2 11.1908425894 19.3054890217 103.795642786
85 5 2 10.1950731849 19.5258893523 103.978172232
86 5 2 9.23502232057 19.523443729 104.367718593
87 5 2 8.39959492094 19.31153681 104.942702531
88 5 2 7.76633681474 18.9226450905 105.664642565
89 5 2 7.39436663997 18.4053767575 106.48166256
90 5 2 7.31898733805 17.820041183 107.333220096
91 6 1 121.750114642 46.8789564555 111.15154012
92 6 1 120.054958196 52.1317180484 111.381608218
93 6 2 121.471795814 46.5591226606 110.794291521
94 6 2 120.763051272 46.0497604696 110.236007234
95 6 2 119.864364215 45.7059290721 109.851830771
96 6 2 118.854770992 45.5710690707 109.66213545
97 6 2 117.823416752 45.6695738838 109.669568155
98 6 2 116.861430105 46.0045663508 109.858808076
99 6 2 116.053616986 46.5576140933 110.197963161
100 6 2 115.47073083 47.2904095775 110.641476992
101 6 2 115.163023578 48.1482617434 111.134281131
102 6 2 115.155665349 49.0650809486 111.616814459
103 6 2 115.446450252 49.9694028628 112.030452014
104 6 2 116.005997446 50.7909022502 112.322848501
105 6 2 116.780429126 51.4668029271 112.452709421
106 6 2 117.696281341 51.9475996431 112.393554962
107 6 2 118.667200034 52.2015703522 112.136133555
108 6 2 119.601811989 52.217667593 111.689265136
109 7 1 83.3004809759 41.0475179571 19.1339900337
110 7 1 83.4970977772 43.6225571688 24.0174832459
111 7 2 83.3612366411 41.3780340665 18.6930258191
112 7 2 83.307080319 42.1224992539 17.9744935034
113 7 2 83.0511817127 42.9819925021 17.4556127166
114 7 2 82.6301246037 43.8905994978 17.1899169329
115 7 2 82.0955465296 44.7779293411 17.20786249
116 7 2 81.5094321608 45.5755304878 17.5140525758
117 7 2 80.9384635628 46.2231299243 18.0868176595
118 7 2 80.4479423048 46.6741268921 18.8801906119
119 7 2 80.0958373961 46.8998404222 19.8280964864
120 7 2 79.9275015655 46.892123529 20.8503750731
121 7 2 79.9715374816 46.6641057858 21.8600872885
122 7 2 80.2371906958 46.2489965997 22.7714394403
123 7 2 80.7135069353 45.6970582628 23.5076030929
124 7 2 81.3703305555 45.0710246785 24.0077177743
125 7 2 82.1610531464 44.4403833341 24.2324382452
126 7 2 83.0268617649 43.8750417017 24.1675207127
127 8 1 68.1978857748 72.7993966592 11.7292655429
128 8 1 63.4643164228 70.005024154 12.2795332537
129 8 2 68.2389162982 73.2537279231 12.0443547158
130 8 2 68.1046516782 74.1526169824 12.5417695146
131 8 2 67.7007275119 75.0390977058 12.8945402702
132 8 2 67.0555022933 75.826612895 13.0867751662
133 8 2 66.2193284626 76.4376257957 13.1172148007
134 8 2 65.2599629156 76.8106873652 12.9993469776
135 8 2 64.2563911437 76.9060371888 12.760177329
136 8 2 63.2916279175 76.7092275353 12.4377678241
137 8 2 62.4451507124 76.2324402288 12.0777675228
138 8 2 61.7856555494 75.5133763081 11.7292517855
139 8 2 61.3647955358 74.6118196781 11.4402491852
140 8 2 61.2124728229 73.6041879662 11.2533638316
141 8 2 61.3341131049 72.5765672599 11.2018921202
142 8 2 61.7101710811 71.6168655904 11.3067878552
143 8 2 62.2979119582 70.80680035 11.5747523658
144 8 2 63.035306612 70.2144499706 11.997623698
145 9 1 56.9449674696 5.39370333255 33.551322636
146 9 1 61.5841132036 7.54641373972 35.6399000999
147 9 2 56.6092229206 5.15673457294 33.9234825382
148 9 2 56.1780525257 4.60241421459 34.6852377759
149 9 2 56.0372477442 3.95818315045 35.4843562656
150 9 2 56.2014020994 3.29466734998 36.2629769315
151 9 2 56.6573129048 2.68425053483 36.9651070195
152 9 2 57.3651846532 2.19447659603 37.5417256872
153 9 2 58.2622562706 1.88189314891 37.9552521229
154 9 2 59.2685216209 1.78689736905 38.1829709356
155 9 2 60.2940218511 1.93005389774 38.2191026029
156 9 2 61.2470449001 2.31022042987 38.0753302584
157 9 2 62.0424848084 2.90465183196 37.7797348056
158 9 2 62.6095988984 3.67107330034 37.3742354185
159 9 2 62.8984557806 4.55153359648 36.9107687211
160 9 2 62.8844864664 5.4776871475 36.4465549025
161 9 2 62.5707237655 6.37702356246 36.0388822502
162 9 2 61.9875258536 7.1794767607 35.7398854754
163 10 1 31.5920707922 121.123611682 102.61052763
164 10 1 27.7167741904 122.854332204 106.146722447
165 10 2 31.456259273 120.67313698 102.317254102
166 10 2 31.1471000263 119.7434515 101.980274161
167 10 2 30.7753201276 118.777183146 101.940838309
168 10 2 30.3561808701 117.86552398 102.199004648
169 10 2 29.9092602261 117.094688582 102.727705639
170 10 2 29.4566683668 116.538055823 103.475215232
171 10 2 29.0210323797 116.249480574 104.369863556
172 10 2 28.6234338698 116.258384983 105.32656944
173 10 2 28.2814874278 116.56707672 106.25459533
174 10 2 28.0077351069 117.150538643 107.06581778
175 10 2 27.8085032488 117.958709041 107.682759662
176 10 2 27.6833258539 118.921044626 108.045652004
177 10 2 27.6249870564 119.952950366 108.117881772
178 10 2 27.6201788308 120.963490095 107.889329046
179 10 2 27.6507139832 121.863675101 107.377289429
180 10 2 27.6951838653 122.574575212 106.624897594
181 11 1 88.0971398095 86.0775441224 116.311317873
182 11 1 82.8832154624 84.5627994348 117.330402019
183 11 2 88.4200010728 85.6779071974 116.102913168
184 11 2 88.9398641973 84.8062608223 115.894526653
185 11 2 89.2995872448 83.8351991212 115.927519271
186 11 2 89.4542317243 82.8441591333 116.187085907
187 11 2 89.3775515079 81.9143988654 116.637769831
188 11 2 89.0643850956 81.1215908416 117.226694484
189 11 2 88.5311260719 80.5289247549 117.888383032
190 11 2 87.8142288749 80.1813478957 118.550726408
191 11 2 86.966886071 80.1014683265 119.141555857
192 11 2 86.0541799953 80.287494217 119.59522093
193 11 2 85.1471506703 80.7133971653 119.858573343
194 11 2 84.3163206979 81.3312846166 119.895811302
195 11 2 83.6252673125 82.0757651419 119.691742742
196 11 2 83.1248274865 82.8699086917 119.253170041
197 11 2 82.8484642756 83.6322585648 118.608270004
198 11 2 82.809216751 84.2842559684 117.80402562
199 12 1 27.2110820715 71.530546735 60.8980846718
200 12 1 25.8443663885 74.3174946617 65.4678768506
201 12 2 26.7921008713 71.4375834659 60.5470943976
202 12 2 25.9004599285 71.1844531592 60.0841133093
203 12 2 24.9312713338 70.8626227943 59.9093314588
204 12 2 23.9630087915 70.5178647911 60.0399437844
205 12 2 23.0740615987 70.1980413625 60.4653093615
206 12 2 22.3355896706 69.9487420015 61.1479212945
207 12 2 21.8050375038 69.8091281208 62.0268253699
208 12 2 21.5208982648 69.8083635948 63.0231758703
209 12 2 21.49920524 69.9629565504 64.0474221502
210 12 2 21.7320704451 70.2752546951 65.0074709387
211 12 2 22.1884035934 70.7332313301 65.8170803944
212 12 2 22.8167458923 71.3115815514 66.4037208192
213 12 2 23.5499603752 71.9740287245 66.7151855461
214 12 2 24.3113512559 72.6766310025 66.7243494376
215 12 2 25.0216545451 73.3717865079 66.4316412691
216 12 2 25.6062627508 74.0125721166 65.8650046478
217 13 1 46.3003738916 81.2733390218 64.2638090728
218 13 1 41.9478119793 79.9292787874 67.3889807397
219 13 2 46.7751055172 81.3423288893 64.5417512788
220 13 2 47.5310129998 81.6111242078 65.1973448767
221 13 2 48.0552113108 82.027850767 65.9879175279
222 13 2 48.2987530668 82.5406325727 66.8546310008
223 13 2 48.2382719793 83.0888384518 67.7317070313
224 13 2 47.8781126293 83.6086084218 68.552422836
225 13 2 47.2499344705 84.0386743571 69.2551927154
226 13 2 46.4098261548 84.325944415 69.7891814258
227 13 2 45.4331932014 84.4303422158 70.1189376761
228 13 2 44.4078849851 84.3284596968 70.2276254179
229 13 2 43.4261875012 84.0156906953 70.1185584065
230 13 2 42.576411743 83.506650788 69.8148981611
231 13 2 41.9348443913 82.8338451197 69.3575428539
232 13 2 41.5587944869 82.0447056469 68.8013995513
233 13 2 41.4813698652 81.1972678413 68.2103795813
234 13 2 41.7084594651 80.354880912 67.6515731872
235 14 1 121.913901496 102.267147101 123.620042928
236 14 1 118.754963923 98.0574571545 125.298618224
237 14 2 121.652459732 102.754541054 123.581612117
238 14 2 121.007316421 103.541207856 123.385664518
239 14 2 120.201253345 104.103352608 123.057479196
240 14 2 119.296073674 104.389116356 122.642221618
241 14 2 118.362614793 104.371831532 122.192993654
242 14 2 117.47429166 104.05245264 121.765993485
243 14 2 116.700405228 103.459469248 121.415393287
244 14 2 116.099825854 102.646309243 121.188401585
245 14 2 115.715627418 101.686469023 121.120960316
246 14 2 115.571161256 100.666814494 121.234468826
247 14 2 115.667927749 99.6796634788 121.533833368
248 14 2 115.985439565 98.8143711889 122.007019918
249 14 2 116.483089026 98.1491857406 122.626151039
250 14 2 117.103849391 97.744116046 123.350046835
251 14 2 117.779472685 97.6354621611 124.127978393
252 14 2 118.436710328 97.8325066337 124.904291582
253 15 1 100.239367124 49.4300495436 82.7871131007
254 15 1 98.5347735092 49.026177278 88.0263152215
255 15 2 100.329178798 49.9476630722 82.6099361094
256 15 2 100.282071128 50.9535748107 82.3662714769
257 15 2 99.9667912864 51.9356670692 82.2685810047
258 15 2 99.4198271993 52.8125857691 82.3413401437
259 15 2 98.698784193 53.5125631205 82.5934883181
260 15 2 97.8771344221 53.9799590642 83.0176141211
261 15 2 97.0375200786 54.1803327152 83.5906308446
262 15 2 96.2642207776 54.1035815562 84.2758807712
263 15 2 95.6354716952 53.7648622561 85.0264764268
264 15 2 95.2163326414 53.2032091794 85.7895742491
265 15 2 95.0527580323 52.4779765088 86.5111911362
266 15 2 95.1674082681 51.6634282693 87.1411248631
267 15 2 95.5575842978 50.8419693618 87.6375298795
268 15 2 96.1954736307 50.0966345757 87.9707314202
269 15 2 97.0306853709 49.5035201905 88.1259302807
270 15 2 97.9948432122 49.1248480029 88.104551725
271 16 1 81.7021111475 18.3088741128 55.3552209453
272 16 1 82.0922939959 12.8258988326 54.8050114545
273 16 2 81.1940211028 18.5160364377 55.275786283
274 16 2 80.2527676111 18.7760782292 54.9295636057
275 16 2 79.3884489461 18.8392213122 54.361746551
276 16 2 78.6688264205 18.6862410304 53.6322326956
277 16 2 78.1484726808 18.3176117944 52.8156578471
278 16 2 77.8637975561 17.7534638406 51.9945931903
279 16 2 77.8297293998 17.0317484139 51.2520191436
280 16 2 78.0383544098 16.2047786134 50.6637619164
281 16 2 78.4596379507 15.3344611928 50.2915821522
282 16 2 79.0441621303 14.4866539257 50.1775456116
283 16 2 79.7276301084 13.7251628454 50.34018899
284 16 2 80.4367265824 13.1059264953 50.7728303479
285 16 2 81.0958002803 12.6719172805 51.4441781515
286 16 2 81.6337593727 12.4492246476 52.3011834124
287 16 2 81.9905513029 12.4446771019 53.2738749615
288 16 2 82.1226364165 12.6452198067 54.2817371333
289 17 1 51.0704280889 111.367381534 80.7141514353
290 17 1 49.1527240236 106.403508151 82.1975135679
291 17 2 51.1110916438 111.735043416 81.1271318266
292 17 2 50.9649420345 112.357887196 81.9420894508
293 17 2 50.5477511779 112.838179368 82.7598432217
294 17 2 49.9035232675 113.121060237 83.5203685824
295 17 2 49.0969563176 113.169663623 84.1688571925
296 17 2 48.2075451119 112.968477108 84.6607125621
297 17 2 47.3223354666 112.524755959 84.9656149023
298 17 2 46.527990237 111.867861826 85.0702846935
299 17 2 45.9028902297 111.046586506 84.9796930775
300 17 2 45.5099900016 110.124704703 84.7166087516
301 17 2 45.3910797205 109.175161131 84.3195226624
302 17 2 45.5629761025 108.273421803 83.8391396592
303 17 2 46.0159896141 107.490595502 83.3337568825
304 17 2 46.7148076465 106.886952404 82.8639501352
305 17 2 47.6017131657 106.506430619 82.4870525601
306 17 2 48.6018454663 106.372631343 82.2519288774
307 18 1 45.6712805233 29.1966212058 11.5464858474
308 18 1 46.3414208376 25.4852047786 15.5831046212
309 18 2 45.8328863757 29.7115497713 11.673425632
310 18 2 46.0019728676 30.6396843467 12.101708225
311 18 2 45.9985867863 31.4462821064 12.7519686341
312 18 2 45.8388188356 32.0544948652 13.5753770705
313 18 2 45.5530135086 32.4055567007 14.5073217652
314 18 2 45.1830032685 32.4641403096 15.4732981594
315 18 2 44.7782956314 32.2215769973 16.395699796
316 18 2 44.391560688 31.6966468064 17.2008919404
317 18 2 44.0738303664 30.9338667654 17.82592319
318 18 2 43.8698470077 29.9994332813 18.2242633264
319 18 2 43.8139852214 28.9751885133 18.37004442
320 18 2 43.9271187314 27.9511606793 18.2604186231
321 18 2 44.2147177922 27.0173582243 17.9158177433
322 18 2 44.6663505897 26.2555657909 17.3780909392
323 18 2 45.2566340729 25.7318897682 16.706690281
324 18 2 45.9475475516 25.4907328708 15.9732518535
325 19 1 94.0629763676 123.756983912 40.7396334344
326 19 1 90.8497137603 119.475333006 39.3756686269
327 19 2 93.8040745226 124.246907265 40.7577036014
328 19 2 93.243090304 125.099315194 40.5784065325
329 19 2 92.6128296283 125.797413457 40.1438029107
330 19 2 91.9537451771 126.272725594 39.5010462932
331 19 2 91.3089168422 126.47708151 38.7162628266
332 19 2 90.7201251083 126.387008041 37.8685240252
333 19 2 90.2240428738 126.005868478 37.0426396135
334 19 2 89.848892814 125.363556007 36.3214273472
335 19 2 89.6118749597 124.513769026 35.7781643954
336 19 2 89.5175989604 123.529116681 35.4699083231
337 19 2 89.557663927 122.494500735 35.432296446
338 19 2 89.7114241504 121.499376999 35.676297585
339 19 2 89.9478709028 120.629601677 36.1872122872
340 19 2 90.2284588001 119.959605797 36.9260126419
341 19 2 90.5106191111 119.545611027 37.8328995701
342 19 2 90.7516397831 119.420505217 38.8327533511
343 20 1 7.02323769322 101.931802208 45.7344008436
344 20 1 5.23836509724 97.032987773 47.5602809072
345 20 2 7.01724209008 102.338016216 46.1116750415
346 20 2 6.78462401069 103.025492924 46.8510765675
347 20 2 6.28839263795 103.557091041 47.5890520941
348 20 2 5.57921930357 103.875009744 48.2742169583
349 20 2 4.72718442994 103.940924518 48.8600000477
350 20 2 3.81538988692 103.739480332 49.3088886333
351 20 2 2.93238447851 103.279691208 49.5958475538
352 20 2 2.16409295603 102.594118623 49.7106011045
353 20 2 1.5859842067 101.735903608 49.6585696396
354 20 2 1.25619246629 100.773923093 49.4603755219
355 20 2 1.21021853889 99.7865119556 49.1499634491
356 20 2 1.45769399353 98.8543230061 48.7715064859
357 20 2 1.98150327236 98.0529757003 48.3753798067
358 20 2 2.73934372805 97.4461636277 48.0135691332
359 20 2 3.66758139702 97.0798490115 47.734932375
360 20 2 4.68705106511 96.9780733742 47.5807463618
361 21 1 16.0504841918 93.8316280471 6.20854863366
362 21 1 11.1324002038 91.4286387184 5.46283874726
363 21 2 16.4718977365 93.5887025745 5.94250460116
364 21 2 17.1751311465 92.9394415705 5.54580202901
365 21 2 17.7057561695 92.085018334 5.29710938916
366 21 2 18.0071534042 91.0982777031 5.20249096902
367 21 2 18.0435969496 90.0641248926 5.2539676027
368 21 2 17.8035107254 89.0717866109 5.4302439506
369 21 2 17.3005236006 88.2066782838 5.69864951274
370 21 2 16.5722271587 87.5426186667 6.01811645752
371 21 2 15.6767493252 87.1351014625 6.34292284476
372 21 2 14.6874561627 87.0162372189 6.62686005838
373 21 2 13.6862647501 87.1918265376 6.82744459826
374 21 2 12.7561766601 87.6408313654 6.90979033769
375 21 2 11.9737125878 88.3172925558 6.84978830059
376 21 2 11.4019376932 89.1545189232 6.63630413027
377 21 2 11.0847133813 90.0711659654 6.27219295625
378 21 2 11.0426994517 90.9786501984 5.77403915684
379 22 1 86.4624406104 15.0983066696 112.641029441
380 22 1 86.2637071256 15.9856920352 118.089978264
381 22 2 86.7169648103 15.4948747734 112.348911728
382 22 2 87.0493726008 16.3789110967 111.922960027
383 22 2 87.1817289137 17.3812239072 111.696463123
384 22 2 87.1164490243 18.4152260841 111.701758912
385 22 2 86.8739622192 19.3914421054 111.950058006
386 22 2 86.4908497221 20.225663503 112.430421916
387 22 2 86.0165104125 20.846624239 113.110760063
388 22 2 85.5086582498 21.2024964147 113.940754754
389 22 2 85.0280618008 21.2656142456 114.856447499
390 22 2 84.6330053466 21.0349957227 115.786068662
391 22 2 84.3739764264 20.5364321211 116.656579067
392 22 2 84.2890640333 19.8201371933 117.400327326
393 22 2 84.4004869044 18.9561703203 117.961216083
394 22 2 84.7125683421 18.0280507864 118.299815135
395 22 2 85.2113421568 17.1251452192 118.396955393
396 22 2 85.8658256477 16.3345220609 118.255476092
397 23 1 76.6373025907 30.8941477159 10.6868757328
398 23 1 75.2001393921 29.4397309163 15.8188563227
399 23 2 76.77180637 31.428375675 10.6244993819
400 23 2 76.8189148496 32.463362446 10.6187386509
401 23 2 76.6055852338 33.465770881 10.7707840907
402 23 2 76.1607157674 34.3478078357 11.0831172134
403 23 2 75.5343089337 35.0326517049 11.5436097375
404 23 2 74.7929138618 35.4614545057 12.126629048
405 23 2 74.0135605513 35.5987057147 12.7953745409
406 23 2 73.2767387939 35.4354689564 13.5052318997
407 23 2 72.6590617439 34.9901965306 14.2078395711
408 23 2 72.2262828339 34.3070475344 14.8554967916
409 23 2 72.0273025253 33.4518628786 15.4055113844
410 23 2 72.0897111618 32.5061640642 15.8240910372
411 23 2 72.4172741835 31.5597227162 16.0894233813
412 23 2 72.9895889168 30.7023781393 16.1936641303
413 23 2 73.763944224 30.0158487059 16.1436520664
414 23 2 74.6792135088 29.5662834444 15.9602857035
415 24 1 94.6137704005 81.9464631839 89.8766321855
416 24 1 98.3700881748 85.1173886063 92.3972074782
417 24 2 94.7014527805 81.4007802905 89.9204906865
418 24 2 95.0819419631 80.4371471537 89.9299337103
419 24 2 95.7180228714 79.6223208112 89.8598685917
420 24 2 96.5581851762 79.0290977897 89.7347136495
421 24 2 97.5323170745 78.7100760655 89.5839084924
422 24 2 98.558095793 78.6928608997 89.439230678
423 24 2 99.5484910886 78.9775486919 89.3318992726
424 24 2 100.419697823 79.5367181942 89.2897293173
425 24 2 101.098774576 80.3179298846 89.3345965614
426 24 2 101.530292062 81.2485056888 89.4804435457
427 24 2 101.681385362 82.2421533929 89.7320087779
428 24 2 101.54474947 83.206831948 90.0843948297
429 24 2 101.139305128 84.0531407655 90.5235147249
430 24 2 100.50847425 84.7024683422 91.027375929
431 24 2 99.7162221303 85.0941574884 91.5680849103
432 24 2 98.8412271771 85.1910340687 92.1143895607
433 25 1 30.7147339243 121.240125015 47.7028168601
434 25 1 26.3997206154 118.464403513 49.7507478523
435 25 2 30.6754618303 121.792031536 47.7380089472
436 25 2 30.3911050636 122.787805492 47.7059860274
437 25 2 29.8491720742 123.659403202 47.5642959468
438 25 2 29.0906839601 124.329607974 47.3430012209
439 25 2 28.1764002398 124.739559546 47.0794201162
440 25 2 27.1812807849 124.854119038 46.8147251893
441 25 2 26.1876534282 124.665071771 46.590190519
442 25 2 25.2777100019 124.191876009 46.4434296839
443 25 2 24.5260147714 123.479889392 46.4049673853
444 25 2 23.992708102 122.596234708 46.4954572025
445 25 2 23.7180248256 121.623681831 46.7237990741
446 25 2 23.7186269428 120.653103467 47.0863280924
447 25 2 23.9860849265 119.775192352 47.5671485497
448 25 2 24.4876460506 119.072194848 48.1395827902
449 25 2 25.1692197134 118.610414411 48.7686028063
450 25 2 25.9603076514 118.434168202 49.4140229482
451 26 1 118.936874414 78.397460898 37.3496084061
452 26 1 115.068650645 76.788338971 40.9503809004
453 26 2 119.352805928 78.6909728649 37.569229192
454 26 2 119.955511831 79.3662496522 38.07340859
455 26 2 120.285818236 80.1441051582 38.6728153815
456 26 2 120.316172084 80.9447751318 39.3296686745
457 26 2 120.046360191 81.6864158441 40.0009514815
458 26 2 119.503528676 82.2925639257 40.6423316037
459 26 2 118.73970867 82.6991057982 41.2122023918
460 26 2 117.827073811 82.8601214557 41.6754750814
461 26 2 116.851361817 82.7520699507 42.0067770397
462 26 2 115.904059715 82.3759350882 42.1927644136
463 26 2 115.074065047 81.7571357549 42.2333383856
464 26 2 114.439583096 80.9432090553 42.1416541814
465 26 2 114.060998685 79.9994774319 41.9429220059
466 26 2 113.975372257 79.0030946989 41.6721092004
467 26 2 114.193061922 78.0360136787 41.3707530631
468 26 2 114.696779335 77.1775164206 41.0831748351
469 27 1 20.4571443717 87.0463285504 109.777060208
470 27 1 22.9386176851 82.154255241 110.43120086
471 27 2 19.9032748959 87.0270859536 109.761571042
472 27 2 18.9052845819 86.8231236213 109.572191235
473 27 2 18.032200908 86.4065010076 109.201245811
474 27 2 17.3598004748 85.8017215586 108.695707003
475 27 2 16.945568142 85.0504387134 108.114814868
476 27 2 16.823457437 84.2076593038 107.52467772
477 27 2 17.0007957815 83.3367298289 106.99224653
478 27 2 17.4576166167 82.5035625912 106.579212524
479 27 2 18.1484793019 81.7706279661 106.336384197
480 27 2 19.0066109072 81.1912603941 106.299056247
481 27 2 19.9499923877 80.8047970896 106.483792567
482 27 2 20.8888344002 80.6329925584 106.88691648
483 27 2 21.7337613621 80.6780357328 107.484845868
484 27 2 22.4039577963 80.9223504564 108.236242612
485 27 2 22.8345344466 81.3301975037 109.085780454
486 27 2 22.9824427595 81.850932115 109.969187839
487 28 1 5.82430716312 35.0272159957 28.2117374296
488 28 1 11.1835769299 33.7057420499 27.9882978648
489 28 2 5.59582577445 35.1595267063 27.7242215643
490 28 2 5.35442558701 35.5502647952 26.7955129412
491 28 2 5.38007029324 36.0850242974 25.9084815805
492 28 2 5.67899581316 36.7025918291 25.1321415206
493 28 2 6.23252925104 37.3342062757 24.5254175841
494 28 2 6.99879087992 37.9098261839 24.1317745368
495 28 2 7.91651136682 38.3645138527 23.9752553914
496 28 2 8.91061630865 38.6443542319 24.0582899504
497 28 2 9.89906906341 38.7113691341 24.3614733366
498 28 2 10.8003481709 38.5469788455 24.8453346955
499 28 2 11.5408778157 38.1536956168 25.4539348584
500 28 2 12.0617340665 37.5548946784 26.1199650479
501 28 2 12.3240156346 36.7926836508 26.7708818933
502 28 2 12.3123896226 35.9240645472 27.3355195647
503 28 2 12.0364890767 35.0157381927 27.7505763484
504 28 2 11.5300349607 34.138024622 27.9663844287
505 29 1 22.2031875645 58.1544717471 73.4121275961
506 29 1 19.84000591 53.2107800797 72.7097913325
507 29 2 22.7568070333 58.146764775 73.4408969259
508 29 2 23.7539881512 57.9639056577 73.6545376819
509 29 2 24.6263841015 57.5661539321 74.0471811357
510 29 2 25.2988734203 56.976352024 74.5700021725
511 29 2 25.7145555988 56.2348472205 75.1623103388
512 29 2 25.8399374128 55.3958141216 75.757081615
513 29 2 25.6679857401 54.5223167713 76.2870674756
514 29 2 25.2187686114 53.6805605376 76.6909244125
515 29 2 24.5376260626 52.9338576707 76.918805232
516 29 2 23.6910375115 52.3368565606 76.936902493
517 29 2 22.7605623372 51.9305606819 76.7305299653
518 29 2 21.8354059601 51.7385912375 76.3054612398
519 29 2 21.0042890063 51.7650341485 75.6874034813
520 29 2 20.3473606602 51.9940676335 74.9196542892
521 29 2 19.9288932798 52.3914043218 74.059155237
522 29 2 19.7914241436 52.9074164555 73.1713018
523 30 1 69.3265104063 24.3789927294 107.318408741
524 30 1 71.8490176313 21.2289633478 111.090975938
525 30 2 69.2631481171 24.9105747202 107.462587087
526 30 2 69.0555109456 25.8119792384 107.929284752
527 30 2 68.7628505047 26.5248353918 108.621842318
528 30 2 68.4283473282 26.9877138155 109.486308165
529 30 2 68.0989958037 27.1619699469 110.453061694
530 30 2 67.8213207593 27.0352663736 111.443159055
531 30 2 67.63713685 26.622697356 112.375528673
532 30 2 67.5797372638 25.9654130257 113.174360701
533 30 2 67.6708591367 25.126868661 113.776016885
534 30 2 67.9187022702 24.1870409079 114.134831024
535 30 2 68.3171817423 23.2351381224 114.227271321
536 30 2 68.8464825311 22.3614692676 114.054085241
537 30 2 69.4748656011 21.6492124928 113.640231384
538 30 2 70.1615608323 21.1668336677 113.032604574
539 30 2 70.8604831064 20.9618459013 112.295761523
540 30 2 71.5244328433 21.056478849 111.506036658
541 31 1 88.3293704326 88.7173617759 51.9413329724
542 31 1 87.3343541955 83.2877361624 52.15835704
543 31 2 88.659236695 88.9106211544 52.3428558853
544 31 2 89.1273669794 89.1556084178 53.23408273
545 31 2 89.3765316681 89.2184011844 54.2377878847
546 31 2 89.3967830587 89.0790227314 55.2642446735
547 31 2 89.1990382838 88.7359237023 56.2216526698
548 31 2 88.8140842442 88.2061233267 57.0245050601
549 31 2 88.2897714646 87.5236581628 57.6013823611
550 31 2 87.6866526463 86.7364797564 57.9014621149
551 31 2 87.0724634507 85.9020839852 57.8991512205
552 31 2 86.5159485741 85.0822704639 57.5964186759
553 31 2 86.080595853 84.3375096738 57.0226161098
554 31 2 85.8188495174 83.7214312403 56.2318024586
555 31 2 85.7673300389 83.2759357362 55.2978166395
556 31 2 85.9434962734 83.027375556 54.3075473298
557 31 2 86.3440541323 82.9841529659 53.3530132965
558 31 2 86.9452568301 83.1359542594 52.522976132
559 32 1 44.2564734874 32.5574636216 3.38955311313
560 32 1 42.9346420228 30.324997996 8.26672953716
561 32 2 44.7998853983 32.5776514914 3.28149047823
562 32 2 45.8270103422 32.7130256401 3.29324636276
563 32 2 46.79186072 32.949977774 3.58712975097
564 32 2 47.6125513673 33.2502225669 4.14369954614
565 32 2 48.2203368938 33.5697057359 4.91957148767
566 32 2 48.565877642 33.8626194715 5.85137251045
567 32 2 48.6237368647 34.0855776972 6.86151703037
568 32 2 48.3946992171 34.201570594 7.86527866297
569 32 2 47.9056992374 34.1833379471 8.77851280688
570 32 2 47.2073663354 34.0158538408 9.52532619939
571 32 2 46.3694100572 33.6976962315 10.0449943845
572 32 2 45.4742662466 33.2411765622 10.2974965846
573 32 2 44.6095832381 32.6712176082 10.2671634879
574 32 2 43.8602329454 32.0230818323 9.96410546349
575 32 2 43.3005750137 31.3391573057 9.42329102907
576 32 2 42.9876791361 30.6650941485 8.70135956346
577 33 1 101.462975062 107.788685439 78.2698605285
578 33 1 104.79214488 103.402362501 77.8285097898
579 33 2 101.084623064 107.836204911 77.8674015203
580 33 2 100.563361242 107.895823593 76.9739913475
581 33 2 100.320442335 107.897383689 75.966798227
582 33 2 100.373019799 107.822408294 74.9347786964
583 33 2 100.711313384 107.659396508 73.9691521541
584 33 2 101.29950058 107.404871714 73.155086455
585 33 2 102.078981744 107.063698461 72.5639350885
586 33 2 102.973721296 106.648639072 72.2467334981
587 33 2 103.897178164 106.179190397 72.2295473376
588 33 2 104.76019377 105.67980672 72.5110966561
589 33 2 105.479118593 105.177670823 73.0628725622
590 33 2 105.983436604 104.700216345 73.8317357336
591 33 2 106.222192611 104.272627279 74.7447599236
592 33 2 106.168636687 103.915542521 75.7158789942
593 33 2 105.822662359 103.643174684 76.6537316143