LAMMPS input file for bananas

648 atoms

2 atom types

0 67.4746132241 xlo xhi
0 67.4746132241 ylo yhi
0 67.4746132241 zlo zhi

Masses

 1 1
 2 1

Atoms

1 1 1 55.9109730238 34.4250743586 42.2129718138
2 1 1 56.7569282152 37.5246177632 37.7392903964
3 1 2 56.2976627092 34.039506239 42.3088314194
4 1 2 56.9830631822 33.2644298782 42.2621291976
5 1 2 57.5789845582 32.4883738526 41.9225514746
6 1 2 58.0470451741 31.7913124605 41.3161498367
7 1 2 58.3605169985 31.2460201807 40.4932950402
8 1 2 58.5067617084 30.9114387781 39.5240860633
9 1 2 58.488382586 30.8273051658 38.491961064
10 1 2 58.3229872468 31.0105296578 37.4860925645
11 1 2 58.0415828268 31.45365471 36.5932599869
12 1 2 57.6857498941 32.1255346242 35.8899403043
13 1 2 57.3038526656 32.9741742648 35.4353376884
14 1 2 56.94663094 33.9314680591 35.2659874559
15 1 2 56.6625755131 34.9194073532 35.3924261241
16 1 2 56.4935085743 35.8571903659 35.7982310801
17 1 2 56.4707719005 36.6685867174 36.4415173893
18 1 2 56.6123702683 37.2888853053 37.2587553198
19 2 1 20.2938190618 32.7098877232 6.80994791945
20 2 1 20.1355406554 31.1507141782 12.09015253
21 2 2 20.4982271785 32.3324585145 6.45902732175
22 2 2 21.0562960111 31.617440849 5.95902013461
23 2 2 21.7918167653 30.9333112762 5.70668262466
24 2 2 22.6305942692 30.3262679166 5.73215671823
25 2 2 23.4890222066 29.8354830109 6.04026371872
26 2 2 24.2817032587 29.4895326389 6.61006487781
27 2 2 24.9292324845 29.3037922055 7.39676981881
28 2 2 25.365434537 29.2790350783 8.33581887247
29 2 2 25.5433950919 29.4013621001 9.34876724811
30 2 2 25.4397367672 29.643468402 10.3504347385
31 2 2 25.0567498106 29.9671320549 11.2566693119
32 2 2 24.4221833598 30.3266977364 11.9920169924
33 2 2 23.5867162984 30.6732379003 12.4965989731
34 2 2 22.6193382232 30.9590121871 12.7315691581
35 2 2 21.6010615157 31.1418186301 12.6826547184
36 2 2 20.6175376186 31.188840076 12.3614569623
37 3 1 11.2700697146 43.3669337776 47.9071497551
38 3 1 8.81900292131 38.710432269 49.5337720845
39 3 2 11.3036830762 43.7628144251 48.2938400788
40 3 2 11.1368059467 44.4587269529 49.0425429895
41 3 2 10.6889015843 45.0336285599 49.7784560927
42 3 2 10.0044852131 45.4248929174 50.4501589322
43 3 2 9.1496285052 45.5866309728 51.0120833768
44 3 2 8.20593760072 45.4938734224 51.4286668434
45 3 2 7.26311526785 45.144846492 51.6775935829
46 3 2 6.41078511043 44.5611336045 51.7518286069
47 3 2 5.73032299091 43.7857081986 51.6602588796
48 3 2 5.28744017842 42.8790169949 51.4268833312
49 3 2 5.12619421715 41.9134706913 51.0886255204
50 3 2 5.26497338322 40.9668442245 50.691968305
51 3 2 5.69482071939 40.1151881179 50.2887172482
52 3 2 6.38025040033 39.4258969978 49.9312788965
53 3 2 7.26248202226 38.9515670348 49.6678842826
54 3 2 8.26479803378 38.7252021643 49.5381929971
55 4 1 51.0956570355 40.5796782196 12.688554686
56 4 1 50.496351303 41.8585569371 18.0122692531
57 4 2 51.4594970144 40.892476788 12.4107808985
58 4 2 52.0185491136 41.654708807 11.9875063178
59 4 2 52.3880219581 42.5882231815 11.7330677185
60 4 2 52.547970698 43.6103158413 11.6836585432
61 4 2 52.4975471689 44.6302094126 11.856785208
62 4 2 52.2550771963 45.5573269536 12.249671513
63 4 2 51.8563903224 46.3095474215 12.8395116738
64 4 2 51.351554189 46.8206904427 13.5855489123
65 4 2 50.800311215 47.0465482 14.4327901579
66 4 2 50.2666334848 46.9689146719 15.3170182883
67 4 2 49.812892131 46.597244987 16.1706450805
68 4 2 49.4941726338 45.9677936536 16.9288714134
69 4 2 49.3532541568 45.1403102097 17.535593264
70 4 2 49.4167105196 44.1925934626 17.9485152039
71 4 2 49.6924881765 43.213400661 18.143005338
72 4 2 50.1691819513 42.2943578798 18.1143403326
73 5 1 24.6464344439 11.8836604156 37.2709399493
74 5 1 25.6814330158 7.69275760105 40.6917215094
75 5 2 24.1468704025 11.8736261985 37.0306987481
76 5 2 23.2731133745 11.6334714258 36.5291286014
77 5 2 22.5372941561 11.1203754446 36.0114406036
78 5 2 21.9955083256 10.3747201432 35.5390376437
79 5 2 21.6861666484 9.4580835973 35.16919519
80 5 2 21.6264941987 8.44762765096 34.9498410235
81 5 2 21.8109604127 7.42906514321 34.9151869499
82 5 2 22.2117831609 6.48884777061 35.0826106277
83 5 2 22.7814608993 5.70628660781 35.4510717137
84 5 2 23.4571021092 5.14632344681 36.0012066834
85 5 2 24.166157428 4.85361179793 36.6970936833
86 5 2 24.833032026 4.84844702847 37.4895265617
87 5 2 25.3859755571 5.1249165791 38.320499672
88 5 2 25.763621711 5.65143885314 39.1284946896
89 5 2 25.9205813312 6.37364166256 39.8540875856
90 5 2 25.8315793258 7.21931788014 40.4453647196
91 6 1 50.3708583755 12.5568127652 19.8264339084
92 6 1 46.6383109297 16.4599454952 20.9082284286
93 6 2 50.8232391786 12.5683971676 20.1467433873
94 6 2 51.6721404003 12.8175210998 20.6852619602
95 6 2 52.4515871098 13.3452528789 21.1173039343
96 6 2 53.0831291056 14.1081203085 21.4204314049
97 6 2 53.5017966866 15.0412201899 21.5839561404
98 6 2 53.6620221953 16.0641338032 21.6099137413
99 6 2 53.5417931971 17.088256523 21.5128781095
100 6 2 53.1446587629 18.024873522 21.3186331364
101 6 2 52.4994059954 18.7932455191 21.0618226787
102 6 2 51.6574362827 19.3279676122 20.782793008
103 6 2 50.6880804133 19.5849304855 20.5239155248
104 6 2 49.6722795508 19.5453406719 20.3257248957
105 6 2 48.6952080013 19.2174334488 20.223224597
106 6 2 47.8385101596 18.6357222482 20.2426965872
107 6 2 47.1728591825 17.8578529951 20.3993058869
108 6 2 46.7515156147 16.9593500756 20.6957183912
109 7 1 22.934995045 15.321850131 30.3929290656
110 7 1 20.9537671831 14.9017398246 35.5149285206
111 7 2 22.8083314191 15.7928937821 30.1293859834
112 7 2 22.3528295737 16.6211673197 29.7060902394
113 7 2 21.6514940494 17.3267695872 29.4180760148
114 7 2 20.7696257352 17.8581574485 29.3056772229
115 7 2 19.7889798465 18.1796662165 29.3932216347
116 7 2 18.8003144971 18.2747602445 29.6868135688
117 7 2 17.8951187197 18.1475400369 30.1737775249
118 7 2 17.157273868 17.8223685165 30.8238134686
119 7 2 16.655408406 17.3416505111 31.5917584721
120 7 2 16.4366428942 16.7619678441 32.421703005
121 7 2 16.5222952738 16.1489222895 33.2520867048
122 7 2 16.9059378822 15.5711564195 34.0213091821
123 7 2 17.5539832904 15.094097305 34.6733444735
124 7 2 18.4087455671 14.7739932868 35.1628474244
125 7 2 19.3936979557 14.6527873245 35.4592865883
126 7 2 20.4204477636 14.7542941838 35.5497269595
127 8 1 57.4521922126 53.4759029279 54.7393140267
128 8 1 58.1308459422 49.6336711175 58.6268992357
129 8 2 57.3642730334 53.9895039593 54.9286944643
130 8 2 57.0366134191 54.8433792296 55.4147340419
131 8 2 56.5334216251 55.4924445935 56.0457732189
132 8 2 55.9122670996 55.8781480503 56.7793249688
133 8 2 55.2414707851 55.9659412317 57.5635589472
134 8 2 54.5938781327 55.7484282483 58.3420254717
135 8 2 54.040219739 55.2460397746 59.0588005239
136 8 2 53.6426647366 54.5051709326 59.6635828403
137 8 2 53.4491545047 53.5939526951 60.1162785272
138 8 2 53.4890331401 52.5960422144 60.3906553446
139 8 2 53.770372945 51.6029980461 60.4767335948
140 8 2 54.279238691 50.7059352151 60.3816957036
141 8 2 54.9809577206 49.9872207053 60.1292315912
142 8 2 55.8232801212 49.5129662738 59.7573794988
143 8 2 56.7411409474 49.327002818 59.315059063
144 8 2 57.662590444 49.4468854889 58.8576126272
145 9 1 57.3355274627 16.0319592989 29.9365969573
146 9 1 54.6025486441 13.108374471 26.1524043805
147 9 2 57.0387897261 16.176204943 30.3821535323
148 9 2 56.3299935153 16.5212023221 31.0539295448
149 9 2 55.469061457 16.9231983028 31.4661109291
150 9 2 54.5238760046 17.3299496323 31.5839077351
151 9 2 53.5699987306 17.6887796405 31.3993611487
152 9 2 52.6837834077 17.9513793571 30.9320688831
153 9 2 51.9354168855 18.0782105429 30.2273989819
154 9 2 51.3825220404 18.0421093298 29.3523548322
155 9 2 51.0649058459 17.8307620206 28.3894682663
156 9 2 51.0009312393 17.4478273981 27.42927735
157 9 2 51.1858434664 16.9126032526 26.5620744594
158 9 2 51.5922034442 16.2582675201 25.8696767495
159 9 2 52.1723886459 15.5288543411 25.4179690817
160 9 2 52.862933567 14.7752406508 25.25089907
161 9 2 53.5903141712 14.0505090948 25.3864715578
162 9 2 54.2776491025 13.4051099105 25.8151075994
163 10 1 40.6268166792 39.6608056221 59.6792478909
164 10 1 44.6837216446 37.5989842933 62.7819966459
165 10 2 40.4468506294 40.162976489 59.8303021626
166 10 2 40.0969286004 41.0025393151 60.325667791
167 10 2 39.7710314259 41.6542608899 61.0617033143
168 10 2 39.5151314077 42.0672904482 61.976372673
169 10 2 39.3688210868 42.2125323659 62.9913585579
170 10 2 39.3617046547 42.0852980259 64.0192004962
171 10 2 39.510699734 41.7057331543 64.9712662742
172 10 2 39.8184954537 41.1169816748 65.7658301555
173 10 2 40.273307353 40.3812534365 66.3355216218
174 10 2 40.8499514542 39.5741542123 66.6334657337
175 10 2 41.5121396098 38.7777947509 66.63755546
176 10 2 42.2157869184 38.0733069455 66.3524665819
177 10 2 42.9130297607 37.5334492178 65.8092315281
178 10 2 43.5565882409 37.2159750864 65.062410981
179 10 2 44.1040754246 37.1583693299 64.1851210451
180 10 2 44.5218606173 37.3744315062 63.2623692151
181 11 1 27.5683589136 45.6897841411 31.7563047721
182 11 1 31.9187736155 49.0041345843 31.1039183925
183 11 2 27.6024488324 45.202241896 31.4945392505
184 11 2 27.7224167353 44.4252055568 30.8203578943
185 11 2 27.9211890601 43.8801245311 29.9624100466
186 11 2 28.1990488036 43.6123194649 29.0012791083
187 11 2 28.549070687 43.6418392017 28.0269529117
188 11 2 28.9577523468 43.9616334675 27.1306219463
189 11 2 29.4062449834 44.5381954555 26.3963679711
190 11 2 29.8720712994 45.314615741 25.8935005386
191 11 2 30.3311741514 46.2157691861 25.6702399044
192 11 2 30.7601091938 47.1551620803 25.7493220815
193 11 2 31.1381816698 48.0428154498 26.1259266084
194 11 2 31.4493325969 48.7934660234 26.7681159013
195 11 2 31.683602433 49.3343373958 27.6197461459
196 11 2 31.8380388202 49.6117730973 28.6055844211
197 11 2 31.9169656724 49.5961270136 29.638165664
198 11 2 31.9315890795 49.2844654258 30.6257645106
199 12 1 28.0222036136 28.1352996311 58.7973931652
200 12 1 24.7806877476 26.0736799462 62.7444090117
201 12 2 28.5662897515 28.06995612 58.8815433387
202 12 2 29.5335590271 28.0380254491 59.2504184556
203 12 2 30.3600645236 28.1107097263 59.870340976
204 12 2 30.9711106891 28.263930117 60.6924385167
205 12 2 31.3116396128 28.4662674722 61.6494118277
206 12 2 31.3512491756 28.681825968 62.661668657
207 12 2 31.0869639951 28.8735047644 63.6445780391
208 12 2 30.5435066111 29.0063794924 64.5161838271
209 12 2 29.7710441959 29.0508853703 65.2046744334
210 12 2 28.8406161602 28.9855118316 65.6549279641
211 12 2 27.837659398 28.798763065 65.833536201
212 12 2 26.8542212993 28.4902057791 65.7318495323
213 12 2 25.9805702621 28.0705086942 65.3667653049
214 12 2 25.2969683461 27.5604701609 64.7791877474
215 12 2 24.8663559368 26.9891225336 64.03029983
216 12 2 24.7286151606 26.3910860703 63.1959868562
217 13 1 26.1765527049 20.2438199813 63.8063135694
218 13 1 23.5229358232 16.6835014528 67.0650072259
219 13 2 26.0900503169 20.7789619107 63.9225942812
220 13 2 25.7018972195 21.715501072 64.1345608902
221 13 2 25.0510394521 22.4948472713 64.3387714173
222 13 2 24.196374665 23.0457362253 64.5356666512
223 13 2 23.2153761209 23.3177259624 64.7263541193
224 13 2 22.1970315383 23.2857942624 64.9125071445
225 13 2 21.2337324712 22.9526192602 65.0962123331
226 13 2 20.412853452 22.3483353527 65.2797793947
227 13 2 19.8087884025 21.5277866545 65.4655306284
228 13 2 19.4761701373 20.5655283332 65.655589261
229 13 2 19.4448909579 19.549031417 65.8516859294
230 13 2 19.7173781742 18.5707104101 66.0550009448
231 13 2 20.2683728717 17.7195003444 66.2660567157
232 13 2 21.0472320884 17.0727509608 66.4846701339
233 13 2 21.9825445737 16.6891768112 66.7099692632
234 13 2 22.9886394342 16.6035058289 66.9404728109
235 14 1 48.3514014387 45.6490769948 2.10613651595
236 14 1 46.2441194044 50.4036601107 3.9199547948
237 14 2 48.4352848759 45.264541344 2.49661910695
238 14 2 48.7011479848 44.722057137 3.33788360966
239 14 2 49.0742113603 44.4530188307 4.26586010652
240 14 2 49.5052059976 44.4843989517 5.20711309147
241 14 2 49.9395828548 44.8157889467 6.08699699758
242 14 2 50.3224846238 45.4194364191 6.8364596287
243 14 2 50.6037455976 46.2427745701 7.39833579372
244 14 2 50.7424639313 47.2132133015 7.73255752179
245 14 2 50.7107295639 48.244755306 7.81980598318
246 14 2 50.4961680298 49.2458341317 7.66327226813
247 14 2 50.103068306 50.1276598366 7.28836654088
248 14 2 49.5519919013 50.8123115832 6.74040207738
249 14 2 48.8778988162 51.2398395883 6.0804652709
250 14 2 48.1269611779 51.3737291349 5.37984802607
251 14 2 47.3523549679 51.2042286383 4.71354999056
252 14 2 46.6094133956 50.7492384362 4.15344285143
253 15 1 49.4043074007 45.0136316648 50.2856186831
254 15 1 53.5777866928 41.9687854749 48.3757450735
255 15 2 49.0566409197 44.7489495002 50.6268695019
256 15 2 48.4048819307 44.0929662786 51.0933397629
257 15 2 47.8126109318 43.2712106979 51.3092821178
258 15 2 47.3458208154 42.3477121815 51.2650582741
259 15 2 47.0590677516 41.3957733234 50.9747423047
260 15 2 46.9904987677 40.4912888603 50.4748378924
261 15 2 47.1583749079 39.7058283858 49.8209512695
262 15 2 47.5594068644 39.100113273 49.0827230913
263 15 2 48.1690547753 38.7184823377 48.3374811675
264 15 2 48.943764865 38.5848506594 47.6631925626
265 15 2 49.8249390715 38.7005298854 47.1313574326
266 15 2 50.7442758589 39.0441086835 46.8004922759
267 15 2 51.6299954336 39.573404238 46.7107965558
268 15 2 52.4133819802 40.229306924 46.8804887948
269 15 2 53.0350466377 40.9411677449 47.3041460814
270 15 2 53.450340386 41.6332375035 47.9531983312
271 16 1 6.25561236041 59.33949016 12.1577854531
272 16 1 8.53732110745 54.7515782679 10.1375120581
273 16 2 5.71804309494 59.4066858772 12.0399517905
274 16 2 4.78404571334 59.4877364017 11.5997495929
275 16 2 4.01051471012 59.4896060794 10.9110228238
276 16 2 3.46143789082 59.3942743447 10.038025242
277 16 2 3.18034560099 59.192579874 9.06180562726
278 16 2 3.18634323366 58.8850555778 8.07282074022
279 16 2 3.47236990375 58.48188003 7.16269080844
280 16 2 4.00584199931 58.00194976 6.41584897095
281 16 2 4.73162295438 57.4711569638 5.90184577654
282 16 2 5.57704856894 56.9200296082 5.66901012803
283 16 2 6.45854985256 56.3809490155 5.74004443413
284 16 2 7.28926976492 55.8851985282 6.10995544058
285 16 2 7.98697963951 55.4601122469 6.746509331
286 16 2 8.48157376285 55.1265837141 7.59316961827
287 16 2 8.72145902959 54.8971616113 8.5742500577
288 16 2 8.67825730035 54.7749060328 9.60181292935
289 17 1 59.4605271181 58.0307255797 13.6535864418
290 17 1 60.2092186236 59.1080266765 19.002933907
291 17 2 59.7136828855 57.5738272067 13.4677456879
292 17 2 60.374638985 56.8137532541 13.2266587899
293 17 2 61.224189758 56.2257139616 13.1547453314
294 17 2 62.1825921796 55.8513896786 13.2732544055
295 17 2 63.1601821432 55.7129820973 13.5860793974
296 17 2 64.0655467294 55.8111907193 14.0794031284
297 17 2 64.8138558669 56.1251491022 14.7229571974
298 17 2 65.3345940115 56.6143266916 15.4727807379
299 17 2 65.5779871548 57.222222904 16.2752271497
300 17 2 65.5195393841 57.8815167674 17.0718536186
301 17 2 65.162265516 58.520202766 17.8047477784
302 17 2 64.5364163176 59.0681536499 18.4218060258
303 17 2 63.6967213557 59.4635120528 18.8814824069
304 17 2 62.7174007723 59.6583283666 19.1565752457
305 17 2 61.6854006277 59.6229310199 19.2367063907
306 17 2 60.6924683628 59.348630838 19.129267112
307 18 1 7.88602688842 37.3300124345 54.622643419
308 18 1 7.02365476712 33.3864216554 58.3697811292
309 18 2 7.79751025303 37.8475061463 54.8008169722
310 18 2 7.4277874031 38.7248944151 55.2084848654
311 18 2 6.82874429582 39.4154053822 55.6953526412
312 18 2 6.06180408823 39.8552627386 56.2348213567
313 18 2 5.20369260694 40.0035355334 56.7954978544
314 18 2 4.33944531508 39.8458687494 57.3440560326
315 18 2 3.55465691286 39.3957916645 57.8482742913
316 18 2 2.92767996744 38.6934847505 58.2799723103
317 18 2 2.52248361371 37.8021174991 58.617579492
318 18 2 2.38282320615 36.8020909553 58.8481009734
319 18 2 2.52825231829 35.7837097138 58.968302019
320 18 2 2.95234056856 34.838951274 58.9850028448
321 18 2 3.62325970545 34.0530829219 58.914457002
322 18 2 4.48668453444 33.4968902011 58.7808699775
323 18 2 5.47074428701 33.2202252963 58.6141930298
324 18 2 6.49257314846 33.2474633482 58.4473933369
325 19 1 7.03046057048 42.3681762111 29.334810877
326 19 1 3.30228246811 38.3268732323 29.6591458853
327 19 2 7.05498314404 42.7019179649 29.77684689
328 19 2 6.86777993148 43.3377713026 30.5726758673
329 19 2 6.39159574888 43.9282141476 31.277887993
330 19 2 5.66729398725 44.4070729073 31.8424936229
331 19 2 4.75835225385 44.7183441139 32.2293184312
332 19 2 3.74507682341 44.8212987559 32.4173915948
333 19 2 2.71728327186 44.6941944481 32.4038571406
334 19 2 1.76611040233 44.3362571019 32.2042342474
335 19 2 0.975713568068 43.7677514769 31.8510027795
336 19 2 0.415594489043 43.0281341881 31.3906429697
337 19 2 0.134266646625 42.1724575053 30.8793990645
338 19 2 0.154833612392 41.2663517163 30.3781530469
339 19 2 0.47288331598 40.3800433763 29.9468756611
340 19 2 1.05689017505 39.5819546386 29.63916049
341 19 2 1.85108843595 38.9324670448 29.4973392681
342 19 2 2.78055483988 38.478418161 29.5486236335
343 20 1 66.0782133074 36.9003859284 14.3994930941
344 20 1 61.5113727074 38.2906799213 11.6521881467
345 20 2 66.1176401787 36.3641298646 14.5346067775
346 20 2 65.9738314144 35.3950442764 14.8705984936
347 20 2 65.5537190194 34.539012992 15.2748438234
348 20 2 64.8883289072 33.8656531387 15.6950113824
349 20 2 64.0310423735 33.4279325956 16.077318584
350 20 2 63.0527307573 33.257342334 16.3714335536
351 20 2 62.035296004 33.3610262317 16.5350625338
352 20 2 61.0642058647 33.7211299572 16.5378046707
353 20 2 60.2207040967 34.2964282699 16.3639228428
354 20 2 59.5744056521 35.0260824176 16.0137779925
355 20 2 59.1769517521 35.8351851726 15.5037962277
356 20 2 59.0573031436 36.6415881108 14.8649716956
357 20 2 59.219100526 37.3633888782 14.1400416781
358 20 2 59.6403327262 37.9263960286 13.3795913818
359 20 2 60.2753428662 38.2708910652 12.6374434431
360 20 2 61.0589896744 38.3570713723 11.965752364
361 21 1 2.79670376346 12.4376143765 23.5225055752
362 21 1 8.26718036498 12.5543505682 22.8925108604
363 21 2 2.62029323942 12.25449656 24.0151798529
364 21 2 2.43736240643 11.733768052 24.8915795348
365 21 2 2.46994136275 11.0298388546 25.6506056
366 21 2 2.72796020595 10.2144981532 26.2348521989
367 21 2 3.20080173357 9.36968952777 26.6028434315
368 21 2 3.85826912831 8.58004235762 26.732813592
369 21 2 4.65333819088 7.92515843355 26.6246909634
370 21 2 5.5264432734 7.47235680043 26.300104354
371 21 2 6.41090627977 7.27053808783 25.8004117798
372 21 2 7.23901391703 7.34572755286 25.1829309651
373 21 2 7.94818929772 7.69870305646 24.5157152246
374 21 2 8.48669539415 8.30492416666 23.8713508705
375 21 2 8.81835051377 9.11676885074 23.320341468
376 21 2 8.92582601238 10.067873897 22.9246819183
377 21 2 8.81222568124 11.0791834665 22.7322080487
378 21 2 8.50080285774 12.0661544908 22.7722367048
379 22 1 13.9731614225 23.1407182631 44.4606587545
380 22 1 11.194659325 20.0274822904 48.0557001728
381 22 2 14.0031039166 23.6791606999 44.5893597292
382 22 2 13.8262757236 24.66402171 44.856715021
383 22 2 13.3639585758 25.5420355904 45.1534518601
384 22 2 12.6604958053 26.2324846496 45.4714432095
385 22 2 11.7822095143 26.6717464435 45.800624829
386 22 2 10.8113557704 26.8190925251 46.1299125621
387 22 2 9.83862752962 26.6604005631 46.4482125808
388 22 2 8.95488859577 26.2094414957 46.7454325119
389 22 2 8.24289200735 25.506624404 47.0134012877
390 22 2 7.76973766557 24.6153135012 47.2466138826
391 22 2 7.58075663838 23.616052919 47.4427330589
392 22 2 7.69537954443 22.5992256623 47.6028023894
393 22 2 8.10536558542 21.656815818 47.7311511433
394 22 2 8.7755536383 20.874024836 47.8349997029
395 22 2 9.64706695063 20.3215060012 47.9238014751
396 22 2 10.6426793529 20.0489248713 48.0083812786
397 23 1 7.83030386955 66.53816423 46.4306557013
398 23 1 8.6283565934 61.9501004129 49.3716448524
399 23 2 7.61951889899 66.4593527909 45.9239613113
400 23 2 7.3991689794 66.1542167245 44.9590591582
401 23 2 7.41067860608 65.6571198502 44.050510592
402 23 2 7.64056254805 64.9992774496 43.2842893314
403 23 2 8.05543225273 64.226555657 42.7333969368
404 23 2 8.60503898352 63.3952910754 42.4512092192
405 23 2 9.22685364767 62.567156082 42.4666114001
406 23 2 9.85176589438 61.8035378132 42.7813654224
407 23 2 10.4103830494 61.1599431484 43.369949361
408 23 2 10.8393547816 60.6809396385 44.1818835711
409 23 2 11.0871470513 60.3960934789 45.1463315622
410 23 2 11.1187390846 60.3172747538 46.1785562582
411 23 2 10.9188152768 60.4375755593 47.1876432011
412 23 2 10.493161105 60.7319396112 48.0847867805
413 23 2 9.86813582109 61.1594459543 48.7913842559
414 23 2 9.08826998715 61.6670386259 49.2461998579
415 24 1 46.9591503045 60.0673708448 26.0100379579
416 24 1 47.1241795973 58.4480271684 31.2718937443
417 24 2 46.8410041001 60.6034433593 25.9322659498
418 24 2 46.4410037534 61.5587956407 25.9321560224
419 24 2 45.8488451768 62.3846322281 26.1322570522
420 24 2 45.1279909373 63.0138312426 26.5287113835
421 24 2 44.3536333296 63.3971929718 27.0997651034
422 24 2 43.6058411131 63.5079240866 27.8077507617
423 24 2 42.9622617943 63.344079669 28.6025205008
424 24 2 42.4910445884 62.9287404783 29.4260166894
425 24 2 42.2446290857 62.3079092983 30.2175634771
426 24 2 42.2549657427 61.5463180984 30.9193969822
427 24 2 42.5306038166 60.7215281591 31.4819300739
428 24 2 43.0559121597 59.9168608925 31.8682718989
429 24 2 43.7925038909 59.213803667 32.0575902298
430 24 2 44.6827350966 58.6845827925 32.04701018
431 24 2 45.6549586788 58.3855805874 31.8518762297
432 24 2 46.6300544965 58.3521965167 31.5043536819
433 25 1 33.860373012 19.337590615 52.0533276927
434 25 1 30.288915334 23.3874898893 53.1394404169
435 25 2 33.7188661992 19.005429699 51.6325834718
436 25 2 33.2489873977 18.3728843329 50.9604238607
437 25 2 32.5441586237 17.7859921047 50.4793082999
438 25 2 31.6610266843 17.3106605224 50.2207814432
439 25 2 30.6724894978 17.002629106 50.1961005103
440 25 2 29.6610519479 16.9023891124 50.3952092682
441 25 2 28.7113061296 17.031493035 50.7876545877
442 25 2 27.9022213593 17.3905902417 51.3253620377
443 25 2 27.2999466636 17.9593677892 51.94701754
444 25 2 26.9517817484 18.6984018089 52.5836557266
445 25 2 26.8818659555 19.5527507219 53.1649456609
446 25 2 27.0889781267 20.4569627877 53.6256010198
447 25 2 27.5466479046 21.341041581 53.9113304948
448 25 2 28.2055683233 22.1368256862 53.9837860724
449 25 2 28.9980898011 22.7842011435 53.8240581926
450 25 2 29.8443859357 23.2365804235 53.4343992255
451 26 1 26.7406219992 14.5943555281 52.2324920957
452 26 1 23.2340557687 11.7660175017 55.401266655
453 26 2 26.7378946682 15.1432961678 52.3101933656
454 26 2 26.5001067117 16.1440666041 52.4310804728
455 26 2 25.9781469467 17.0335047575 52.5267677031
456 26 2 25.2174459777 17.7317347436 52.6074348801
457 26 2 24.2851940333 18.1763079914 52.6846308026
458 26 2 23.2642170369 18.3278950025 52.7702206502
459 26 2 22.2454275924 18.1738699652 52.875304554
460 26 2 21.3195389233 17.7294615108 53.0092058953
461 26 2 20.5687969844 17.0363647281 53.1786215437
462 26 2 20.0594843066 16.1589409419 53.3870114832
463 26 2 19.8358787993 15.1783516199 53.6342834583
464 26 2 19.9162181218 14.1851610607 53.9168013825
465 26 2 20.2910374463 13.2710820796 54.2277167429
466 26 2 20.9240321116 12.5206170137 54.5575927948
467 26 2 21.7553665445 12.0033559136 54.8952646565
468 26 2 22.7071278616 11.7676338874 55.2288569117
469 27 1 47.1310349337 16.9572572887 50.3239946022
470 27 1 46.6876723731 12.0642077209 52.8135990875
471 27 2 47.0418488377 17.3964455083 50.650399718
472 27 2 46.6802352364 18.099445009 51.3195227086
473 27 2 46.1019751354 18.589171177 52.0255551491
474 27 2 45.3680191814 18.8154257712 52.7204046201
475 27 2 44.5535086305 18.7520241777 53.3569979529
476 27 2 43.7409267379 18.3991819586 53.8935716268
477 27 2 43.0125809752 17.7834952043 54.2974782268
478 27 2 42.4431012679 16.9555164825 54.5481620324
479 27 2 42.09263799 15.9851473185 54.6390325303
480 27 2 42.0013796693 14.9552671498 54.5780650943
481 27 2 42.1858900792 13.9541794343 54.3870740851
482 27 2 42.6375985639 13.067563395 54.0997246204
483 27 2 43.3235811948 12.3706649465 53.7584642307
484 27 2 44.1895615614 11.9214385457 53.4106540576
485 27 2 45.1648576935 11.7552650404 53.1042522105
486 27 2 46.1688242384 11.8817269476 52.8834427138
487 28 1 54.4618526532 35.545031518 51.6594737168
488 28 1 52.0982450982 30.5816798384 51.3201591755
489 28 2 54.6713158812 35.7390493694 51.1842232764
490 28 2 55.1655310197 35.8901686522 50.2866640137
491 28 2 55.7423960596 35.7504750405 49.4378939083
492 28 2 56.3362812991 35.3268758807 48.7026644576
493 28 2 56.880005762 34.6521545633 48.1353787065
494 28 2 57.3109602831 33.7819825421 47.7751327831
495 28 2 57.5768139041 32.7898452622 47.6421525549
496 28 2 57.6402834819 31.7603444659 47.7359501793
497 28 2 57.4825317912 30.781487324 48.0353685671
498 28 2 57.1048844088 29.9366651853 48.5005097066
499 28 2 56.5287088961 29.297053027 49.0763710932
500 28 2 55.7934672925 28.9151223436 49.6978588312
501 28 2 54.9531194208 28.8198587297 50.2957204954
502 28 2 54.0712048198 29.0141200422 50.8028570155
503 28 2 53.2150515505 29.4743759257 51.1604382961
504 28 2 52.4496397052 30.1528524435 51.3232651764
505 29 1 22.9112620487 31.9901420091 36.8962878879
506 29 1 23.559062361 32.2790282507 31.4342796106
507 29 2 22.9591046725 32.4727733379 37.1649118545
508 29 2 23.2478853657 33.3926482636 37.5432425345
509 29 2 23.7646109136 34.2724704851 37.721022842
510 29 2 24.4536437971 35.0440423346 37.6699460615
511 29 2 25.2436418653 35.6490324234 37.382564232
512 29 2 26.0540606825 36.0442921481 36.8729669775
513 29 2 26.8024946021 36.2057883901 36.1754973345
514 29 2 27.4121874757 36.1307939697 35.3416216196
515 29 2 27.8190284501 35.8381362095 34.4352386277
516 29 2 27.9773952319 35.3664809532 33.5268556948
517 29 2 27.864312247 34.7708084392 32.6871624379
518 29 2 27.4815447061 34.1174022284 31.980587881
519 29 2 26.8554377184 33.4778079127 31.4594281911
520 29 2 26.0345151154 32.9223122241 31.1590802415
521 29 2 25.085056836 32.5135368815 31.0948154291
522 29 2 24.085057965 32.3007310502 31.2603877916
523 30 1 66.2945152362 19.1536223687 13.7153873812
524 30 1 63.5044365021 15.528618791 16.7831951728
525 30 2 66.1782694348 19.6862412623 13.8163070495
526 30 2 65.7383852117 20.6093222511 13.9809935073
527 30 2 65.043532968 21.3651197118 14.1175542223
528 30 2 64.1549829763 21.8847031212 14.2324901349
529 30 2 63.1516597308 22.1206712472 14.3342731382
530 30 2 62.1229485212 22.0514724466 14.4325739225
531 30 2 61.1605485756 21.683368949 14.5373805587
532 30 2 60.3501153055 21.0498660981 14.6580881539
533 30 2 59.7634534014 20.2086585687 14.8026425517
534 30 2 59.4519723284 19.2363718933 14.9768161232
535 30 2 59.4420007051 18.2215785697 15.183681655
536 30 2 59.7323866313 17.2567252853 15.4233322854
537 30 2 60.2946026752 16.4297070354 15.6928730159
538 30 2 61.0753459536 15.8158560968 15.9866845703
539 30 2 62.0013963241 15.4710760075 16.2969355533
540 30 2 62.986289899 15.4267463421 16.6142962281
541 31 1 6.33540579998 54.3854913255 45.8753170388
542 31 1 2.56706527845 51.7496836484 48.9066142084
543 31 2 6.143904785 54.6133270484 45.4075574892
544 31 2 5.69322633879 54.825552983 44.4995115862
545 31 2 5.14395894402 54.7497549275 43.6247211799
546 31 2 4.52912925732 54.3993166096 42.8684965355
547 31 2 3.88773948871 53.8126533341 42.3053414619
548 31 2 3.26121261757 53.049710691 41.9921628002
549 31 2 2.68961697211 52.186500926 41.9630837556
550 31 2 2.2080142759 51.3081749457 42.226333801
551 31 2 1.8432640122 50.5012613959 42.7634986168
552 31 2 1.6115753662 49.8457801692 43.5311984304
553 31 2 1.51702986893 49.4079491398 44.4650417844
554 31 2 1.55120939365 49.2341488591 45.4854943769
555 31 2 1.69396341046 49.3466952858 46.5051280678
556 31 2 1.91524556887 49.7418058392 47.4365893542
557 31 2 2.1778522167 50.3899441561 48.2005610433
558 31 2 2.44081325788 51.2385121273 48.7329914708
559 32 1 23.178909239 37.2683872537 24.3716504748
560 32 1 27.1123810642 41.1063247025 24.004675725
561 32 2 23.140568753 37.0168920027 24.8642567045
562 32 2 23.3007814807 36.5176531567 25.7574480209
563 32 2 23.7512403045 36.0325779085 26.5539950205
564 32 2 24.4541661058 35.6203485524 27.1932606515
565 32 2 25.3487691321 35.3330079795 27.6289429801
566 32 2 26.356789566 35.2112163242 27.8332952951
567 32 2 27.389630371 35.2805450723 27.7996550296
568 32 2 28.3564323037 35.5491463951 27.5430510092
569 32 2 29.1723551115 36.0070101349 27.0988336767
570 32 2 29.7663101394 36.6268761625 26.5194531421
571 32 2 30.0874395738 37.3667189505 25.8696787148
572 32 2 30.1097517832 38.1735779128 25.2206956245
573 32 2 29.8344902777 38.9883843981 24.6436169764
574 32 2 29.2900203713 39.7513453931 24.2030022783
575 32 2 28.5292438778 40.4073932455 23.950973285
576 32 2 27.6247774735 40.9112047027 23.9224634571
577 33 1 28.5034873141 63.5554861768 5.04781284963
578 33 1 29.2885159593 59.4379630427 8.62081833433
579 33 2 28.3202797505 63.4015292251 4.5476998651
580 33 2 28.156647308 62.961227206 3.62463062238
581 33 2 28.2272889057 62.3466733784 2.79394919806
582 33 2 28.5136030317 61.599913569 2.135866924
583 33 2 28.9773311015 60.7750432733 1.71486390291
584 33 2 29.5640444662 59.9332772224 1.57381208901
585 33 2 30.2081052103 59.1373700791 1.73006780337
586 33 2 30.8386485981 58.4458967818 2.17388982423
587 33 2 31.3860419081 57.9079138393 2.86932723258
588 33 2 31.7882309782 57.5584881673 3.75749609193
589 33 2 31.9963960174 57.4155009788 4.76194631543
590 33 2 31.9794011948 57.4780180347 5.79562956711
591 33 2 31.7266324572 57.7263747926 6.76883312094
592 33 2 31.2489649272 58.1239686956 7.59735656066
593 33 2 30.5777717105 58.6205952443 8.21018607048
594 33 2 29.7620644523 59.1570237925 8.55596685749
595 34 1 15.7546828545 65.172441294 6.19262150941