LAMMPS input file for bananas

4320 atoms

2 atom types

0 63.4960420787 xlo xhi
0 63.4960420787 ylo yhi
0 63.4960420787 zlo zhi

Masses

 1 1
 2 1

Atoms

1 1 1 23.950486558 49.6379109111 22.6866367851
2 1 1 25.2822986756 50.1577522468 28.0227432805
3 1 2 23.580880781 50.0071593864 22.5010870043
4 1 2 22.7674895304 50.6291790384 22.3431748855
5 1 2 21.8649726705 51.1265798317 22.4504398827
6 1 2 20.9609865209 51.4699501718 22.8224020609
7 1 2 20.1433213232 51.6439179286 23.4344550449
8 1 2 19.4918993947 51.6485515644 24.240108824
9 1 2 19.0714904233 51.4993538942 25.1752271925
10 1 2 18.9258078832 51.2258490452 26.1638735935
11 1 2 19.0735246686 50.8688914119 27.125232533
12 1 2 19.5065711094 50.476941887 27.9809756961
13 1 2 20.1908705001 50.1016507805 28.6624013637
14 1 2 21.0694451003 49.7931500322 29.1166963905
15 1 2 22.0676095035 49.5954838192 29.311749982
16 1 2 23.0997780124 49.5425940469 29.2390805076
17 1 2 24.0772655461 49.6552266353 28.9146085788
18 1 2 24.9163710487 49.9390405833 28.3772059276
19 2 1 41.3074758733 40.1448506906 29.0675979464
20 2 1 38.6183726558 35.3525548821 29.6338274322
21 2 2 41.8449558194 40.0974593478 28.9401187081
22 2 2 42.8519444662 39.8602001725 28.8841547891
23 2 2 43.7812992835 39.4367479957 29.0586193659
24 2 2 44.5481464993 38.8507830129 29.435501838
25 2 2 45.0824244751 38.140798028 29.9683417549
26 2 2 45.3352696367 37.3565899363 30.5964635618
27 2 2 45.2834702592 36.554720871 31.2505070142
28 2 2 44.9315821527 35.7933627157 31.8587491791
29 2 2 44.3115134133 35.126994893 32.3536417881
30 2 2 43.4796160848 34.6014387105 32.6779680823
31 2 2 42.5115498208 34.2496808712 32.7900579661
32 2 2 41.4953857092 34.0888668236 32.6675861257
33 2 2 40.5235788286 34.1187379999 32.3096069214
34 2 2 39.684541214 34.3216553838 31.7366405805
35 2 2 39.0545833372 34.6642072598 30.9888028328
36 2 2 38.6909586104 35.1002546016 30.1221484698
37 3 1 7.62985157811 57.1205384725 50.5928640949
38 3 1 4.86754014618 53.4970284049 53.7166120688
39 3 2 7.47037776965 57.6483371937 50.6509864001
40 3 2 6.95744344931 58.5454789354 50.72504779
41 3 2 6.20428615385 59.2558751547 50.7643073258
42 3 2 5.27607043463 59.71573987 50.7840565877
43 3 2 4.25391695041 59.884122377 50.801365465
44 3 2 3.22750853619 59.7466397953 50.8335262816
45 3 2 2.28691585244 59.3167880301 50.8964776469
46 3 2 1.51438768518 58.634711656 51.0033516938
47 3 2 0.976854188946 57.7635448468 51.1632771206
48 3 2 0.719826382091 56.7836568639 51.3805471338
49 3 2 0.763247939109 55.7853266131 51.6542281342
50 3 2 1.09967737801 54.8605139638 51.9782448119
51 3 2 1.6949663315 54.0944778522 52.3419338946
52 3 2 2.49137207943 53.5580051579 52.7310160762
53 3 2 3.41282064334 53.3009586681 53.1288975376
54 3 2 4.37184072632 53.3477322187 53.5181824289
55 4 1 20.4365262672 57.2271161615 59.0962652915
56 4 1 21.805276003 52.6481683678 56.3253895591
57 4 2 19.9894046294 57.4920798313 58.9032417625
58 4 2 19.2651267964 57.9687591493 58.3361011629
59 4 2 18.7335410299 58.3708791416 57.5429012538
60 4 2 18.431688219 58.6471250737 56.591048809
61 4 2 18.375669708 58.7576552954 55.562411357
62 4 2 18.5591797017 58.6777327007 54.5458551744
63 4 2 18.954080022 58.3999794486 53.6291453626
64 4 2 19.5129648277 57.9350494337 52.890946293
65 4 2 20.1734815296 57.3106572124 52.3936515598
66 4 2 20.8640140633 56.569051895 52.1776969712
67 4 2 21.5102105011 55.7631662521 52.2578749329
68 4 2 22.0417600324 54.9517920344 52.6219861602
69 4 2 22.3988016053 54.1942212613 53.2319516101
70 4 2 22.5373801021 53.5448419121 54.0272832845
71 4 2 22.4334527305 53.048180607 54.9305975491
72 4 2 22.08508046 52.7348441246 55.8546684452
73 5 1 43.3457468951 7.10697910717 49.2152883441
74 5 1 46.4001337934 9.53166225344 45.3025369621
75 5 2 43.3666652628 6.55296093819 49.2180951909
76 5 2 43.3581739939 5.54140466804 48.9941938246
77 5 2 43.304286508 4.63911387424 48.4878170148
78 5 2 43.2283798707 3.92510427742 47.7409043765
79 5 2 43.1558381345 3.46123027035 46.8173197224
80 5 2 43.11173865 3.28654705533 45.7970300474
81 5 2 43.1185663326 3.41375086691 44.7688167503
82 5 2 43.1941642228 3.82802174404 43.8221834472
83 5 2 43.3501071401 4.48837432992 43.0391979556
84 5 2 43.5906466697 5.33139357769 42.4870120324
85 5 2 43.9123236417 6.27701486251 42.2117406708
86 5 2 44.3042834253 7.23582165807 42.2342588418
87 5 2 44.749265299 8.11719561402 42.5482987962
88 5 2 45.2251757198 8.83757617638 43.1210213538
89 5 2 45.70710209 9.32807690867 43.8960091063
90 5 2 46.1695834744 9.54076430653 44.7984087135
91 6 1 26.5281116629 18.6622974373 45.2188459387
92 6 1 24.8628144339 21.6941109981 49.5261516781
93 6 2 26.9415075864 18.8838023467 44.9231755587
94 6 2 27.5762833693 19.4884219549 44.3709574441
95 6 2 27.9907746188 20.2982066964 43.8750787416
96 6 2 28.1580540804 21.2472201735 43.4944989034
97 6 2 28.0737271931 22.2568356609 43.277668198
98 6 2 27.7563326422 23.2429027224 43.2581115983
99 6 2 27.2456526076 24.1234172975 43.4513730699
100 6 2 26.5990867246 24.8259961532 43.8535987797
101 6 2 25.88642026 25.2944744213 44.441888363
102 6 2 25.1834633724 25.4940248767 45.1763822302
103 6 2 24.565141218 25.4143323456 46.0038946622
104 6 2 24.0986647235 25.0705339061 46.8627615461
105 6 2 23.8374044896 24.5018391838 47.6884608947
106 6 2 23.8160262032 23.7679564997 48.4194938528
107 6 2 24.0473309529 22.9436506156 49.002990154
108 6 2 24.5210884439 22.1119281266 49.3995271034
109 7 1 18.898476933 4.05095560698 7.46857323041
110 7 1 14.2819231496 3.87161088182 10.4973118616
111 7 2 18.9022925076 4.4375875755 7.07122860624
112 7 2 18.7011002372 5.06629607432 6.27266908746
113 7 2 18.2385854469 5.53531321617 5.47294851092
114 7 2 17.5479409494 5.81649536325 4.75364552227
115 7 2 16.6831529707 5.8988195355 4.189008919
116 7 2 15.7140804496 5.78938812575 3.83919007092
117 7 2 14.720087582 5.51278153561 3.74476028363
118 7 2 13.7828099871 5.10881773759 3.92301283245
119 7 2 12.9787138384 4.62892297326 4.36638672654
120 7 2 12.3721261765 4.13144438886 5.04315587308
121 7 2 12.0093716715 3.67633184881 5.9003208258
122 7 2 11.9145502528 3.31967366584 6.86843954282
123 7 2 12.0873404651 3.10858430116 7.86795684323
124 7 2 12.5030287684 3.07691000727 8.81645564915
125 7 2 13.1147621106 3.24214383251 9.63616908212
126 7 2 13.8578184586 3.60383117644 10.2610687062
127 8 1 27.6401118705 5.93978133618 47.286410815
128 8 1 24.29474081 4.24691944045 51.3435899003
129 8 2 27.3886273542 6.03891284946 46.8023549616
130 8 2 26.8268904749 6.01032853587 45.9322488608
131 8 2 26.1774080136 5.71369902277 45.1814935907
132 8 2 25.4828645988 5.1840253125 44.624263641
133 8 2 24.7900520449 4.47754976313 44.3170941856
134 8 2 24.1456044025 3.66662974778 44.2937280525
135 8 2 23.5917473903 2.83314247352 44.5620401558
136 8 2 23.1624496327 2.06102209274 45.1033197177
137 8 2 22.8803265112 1.42860932951 45.8739757061
138 8 2 22.7545788327 1.00151093196 46.8095100408
139 8 2 22.7801542002 0.826619792556 47.8303964209
140 8 2 22.9382075255 0.927840786269 48.8493289348
141 8 2 23.1978187089 1.30391190512 49.7791797606
142 8 2 23.5188109231 1.92851928683 50.540940634
143 8 2 23.8554126239 2.75269565305 51.0709242409
144 8 2 24.1604295044 3.70928354588 51.3265691452
145 9 1 29.4908545081 45.7159320078 34.4954354051
146 9 1 27.964988743 42.9302328862 29.9755233338
147 9 2 30.001867517 45.9301395586 34.4763981278
148 9 2 31.0168247387 46.1124223084 34.3759747818
149 9 2 32.029027316 46.0024191847 34.1841538588
150 9 2 32.9473683627 45.6158705693 33.9001117825
151 9 2 33.6892962203 44.9937232266 33.5314306884
152 9 2 34.1883388211 44.1983981151 33.093407332
153 9 2 34.4001624391 43.308100884 32.6076588309
154 9 2 34.3066125911 42.4096936375 32.1001523219
155 9 2 33.9173687691 41.5907776861 31.5988381262
156 9 2 33.2690621806 40.9317089211 31.1311021521
157 9 2 32.4219369117 40.4982735899 30.7212697429
158 9 2 31.4543588399 40.3356920557 30.3883884865
159 9 2 30.4556727937 40.4644970819 30.1444920791
160 9 2 29.5180590104 40.8786623256 29.9935034856
161 9 2 28.7281311537 41.5461516231 29.930877372
162 9 2 28.1590417098 42.411839 29.9440144005
163 10 1 22.2084341729 55.5446077612 35.2139906947
164 10 1 26.1037066068 59.4249502887 35.750447213
165 10 2 22.0580799504 55.4351992817 34.6916833326
166 10 2 21.7538994545 55.4644186538 33.7016982492
167 10 2 21.458247666 55.7950373139 32.7653589236
168 10 2 21.214886822 56.398086027 31.9587873146
169 10 2 21.06281298 57.219764287 31.3462774006
170 10 2 21.0327016312 58.186344089 30.9744349551
171 10 2 21.1441117113 59.2108900396 30.8679295551
172 10 2 21.4037028562 60.2011832862 31.0272460151
173 10 2 21.8046283939 61.0681270184 31.4286401976
174 10 2 22.3271594 61.7338674043 32.0263032276
175 10 2 22.9404829367 62.1388897595 32.7565368492
176 10 2 23.60551057 62.247443151 33.5435593517
177 10 2 24.2784411754 62.0507989997 34.3064128693
178 10 2 24.9147532936 61.5680466666 34.9663424748
179 10 2 25.4732631428 60.8443535088 35.4539744804
180 10 2 25.9198784098 59.9468479957 35.7156396642
181 11 1 43.6202046156 40.3572336834 42.8457678447
182 11 1 47.8958411598 39.2642726813 46.1687724266
183 11 2 43.5191165547 40.8963161777 42.7648181302
184 11 2 43.3392818307 41.9132336606 42.8484142801
185 11 2 43.2006377756 42.8669199705 43.2288222973
186 11 2 43.1336080266 43.6776539116 43.870435499
187 11 2 43.1620887681 44.2787440147 44.713839048
188 11 2 43.3012706589 44.6226072857 45.6812254565
189 11 2 43.5562542436 44.6851062691 46.6834865302
190 11 2 43.9215850521 44.4677491119 47.6283353423
191 11 2 44.3817507598 43.9975521006 48.4287179403
192 11 2 44.9125950944 43.3245771983 49.0107480809
193 11 2 45.4835196158 42.5173690313 49.3204417637
194 11 2 46.0602726817 41.6567072288 49.3286377287
195 11 2 46.608071394 40.8282435763 49.0336554267
196 11 2 47.0947719661 40.1146950837 48.4614481976
197 11 2 47.4937995439 39.5883045516 47.6632376922
198 11 2 47.7865704323 39.3042558324 46.7108451559
199 12 1 45.6421291516 34.5505446167 23.6097958761
200 12 1 43.3795991802 30.9874226182 27.1739382433
201 12 2 45.555272013 35.0853678439 23.7272758366
202 12 2 45.1683122534 36.0170159819 23.9633773037
203 12 2 44.5224906305 36.786078251 24.2181471384
204 12 2 43.6780222515 37.3225075826 24.487529284
205 12 2 42.7132283447 37.5774607781 24.7661358106
206 12 2 41.7173974885 37.5277504368 25.0477380106
207 12 2 40.7826471964 37.1779584249 25.3258341289
208 12 2 39.9955276517 36.5600182507 25.5942419802
209 12 2 39.4291328896 35.7303044111 25.847662439
210 12 2 39.1364384713 34.7644940063 26.0821624405
211 12 2 39.1454729033 33.7506689748 26.2955334689
212 12 2 39.4567629137 32.7812876601 26.4874928581
213 12 2 40.0432854428 31.9447574793 26.6597095555
214 12 2 40.852930722 31.3173768242 26.815652002
215 12 2 41.8132519407 30.9563806661 26.9602719932
216 12 2 42.8380685791 30.8947237414 27.099553336
217 13 1 39.1932295408 20.4513947982 34.7364965823
218 13 1 40.8766559452 16.2997386732 37.9688050487
219 13 2 38.6622604358 20.5972491078 34.8011488668
220 13 2 37.6314025555 20.6392090848 34.8961299287
221 13 2 36.6313656258 20.3775028833 34.9660299618
222 13 2 35.7510486829 19.8341868447 35.023473616
223 13 2 35.0684386061 19.0569852942 35.082220907
224 13 2 34.6435018222 18.1149405967 35.1559130273
225 13 2 34.5127185261 17.0921201288 35.2568289884
226 13 2 34.6857576086 16.0799537632 35.3947664212
227 13 2 35.1445953625 15.1689002793 35.5761485487
228 13 2 35.8451582959 14.4402022877 35.8034387258
229 13 2 36.7213403126 13.9584811833 36.0749159116
230 13 2 37.6910281064 13.7658470779 36.3848315374
231 13 2 38.6635855696 13.8780605758 36.7239334734
232 13 2 39.5481150315 14.2830962372 37.0803093356
233 13 2 40.2617423387 14.9422386648 37.4404722679
234 13 2 40.7371706123 15.7936113085 37.7905902327
235 14 1 36.5291900862 36.0567392245 59.5393751061
236 14 1 37.27785802 30.6102668372 60.0810631343
237 14 2 36.4366791089 36.229362478 59.0206993697
238 14 2 36.4560028885 36.4250875909 58.0034637613
239 14 2 36.7135196842 36.4287995605 56.9999094118
240 14 2 37.1747492605 36.2260117105 56.0945948936
241 14 2 37.7866435065 35.8210592708 55.3631244809
242 14 2 38.4824216291 35.2367042339 54.8652570226
243 14 2 39.1876570442 34.512060659 54.6394590824
244 14 2 39.8270611608 33.6990295308 54.6993988149
245 14 2 40.3313457347 32.8575681234 55.0327001492
246 14 2 40.643538307 32.0502250545 55.6020708353
247 14 2 40.7241750912 31.3364391468 56.3487015326
248 14 2 40.5548979921 30.7671217377 57.1976261244
249 14 2 40.1401278969 30.3800162468 58.0645546787
250 14 2 39.5066617234 30.1962579648 58.8635562506
251 14 2 38.7012299522 30.2184476276 59.5148912581
252 14 2 37.7862372687 30.4304143663 59.9522795318
253 15 1 55.0368267953 13.4398203688 51.9164274411
254 15 1 58.5426471408 9.37752896012 50.6030336396
255 15 2 54.8970611602 13.4635634585 52.4524157068
256 15 2 54.5903504756 13.2790160653 53.424691813
257 15 2 54.2632873929 12.8089350318 54.2881173008
258 15 2 53.9622973796 12.0917186366 54.9725555125
259 15 2 53.7314294129 11.188290886 55.424184002
260 15 2 53.6083410325 10.1765484536 55.6104003075
261 15 2 53.6208659571 9.14426060696 55.5227935781
262 15 2 53.7844771149 8.18106927291 55.1779112007
263 15 2 54.1008763281 7.37031841604 54.61575055
264 15 2 54.5578391957 6.78145745883 53.8961133345
265 15 2 55.1303293155 6.46371115247 53.0931548308
266 15 2 55.7827802848 6.44159287234 52.2886248279
267 15 2 56.4723374835 6.71267028939 51.5644163532
268 15 2 57.1527641576 7.2477870704 50.9951013411
269 15 2 57.7786557762 7.99372039986 50.6411336011
270 15 2 58.3095785328 8.87803209732 50.5433386143
271 16 1 31.701104727 25.1177553038 19.0234372
272 16 1 27.7764866959 25.2477892896 15.137764088
273 16 2 31.5953043479 25.4249612856 19.4726724975
274 16 2 31.3538695251 26.1674034355 20.1538030956
275 16 2 31.0592417511 27.0660661978 20.5769457731
276 16 2 30.7193904247 28.0363011489 20.7057682354
277 16 2 30.3464069503 28.9869362512 20.5307646888
278 16 2 29.9554026392 29.828585941 20.0701222684
279 16 2 29.5631313538 30.4817983837 19.3680633289
280 16 2 29.1864624378 30.8842972961 18.4908146957
281 16 2 28.8408431207 30.9966582632 17.5205712665
282 16 2 28.5388905438 30.8059021682 16.5480041661
283 16 2 28.2892417421 30.3266782045 15.6639963157
284 16 2 28.0957664011 29.5999286405 14.9513586976
285 16 2 27.9572141454 28.6891570416 14.4772823553
286 16 2 27.8673285073 27.6746400899 14.2872141099
287 16 2 27.815417187 26.646110579 14.4007142033
288 16 2 27.7873266271 25.6945785099 14.8096734349
289 17 1 9.19551650241 33.2369088898 5.95177777773
290 17 1 5.42471179481 37.2726453287 5.84290025776
291 17 2 9.61602983122 33.3195608798 6.30351457832
292 17 2 10.4145336259 33.6834127203 6.8543807501
293 17 2 11.1578193878 34.2962540835 7.23569656531
294 17 2 11.7691980115 35.1103988478 7.42761970752
295 17 2 12.1840033747 36.0598126245 7.42757049621
296 17 2 12.3554864825 37.0661316161 7.25046701779
297 17 2 12.2590765131 38.0458052668 6.92736538189
298 17 2 11.8946203827 38.9177116724 6.50262903999
299 17 2 11.2863966989 39.610551625 6.02988517537
300 17 2 10.4809028298 40.0693473455 5.56713672868
301 17 2 9.54261679393 40.2604535607 5.17147558496
302 17 2 8.54812026093 40.1746241806 4.89387880088
303 17 2 7.57911833688 39.8278550544 4.77456218229
304 17 2 6.71499236245 39.2599259917 4.83931472101
305 17 2 6.02556451581 38.5307749394 5.09714799714
306 17 2 5.56473370771 37.7150347975 5.53947479761
307 18 1 46.9657260394 41.5496835829 57.1323839252
308 18 1 42.6400027645 41.4887634458 53.6969221008
309 18 2 47.1516362045 42.0549009255 57.264952531
310 18 2 47.4965997199 43.031748491 57.2797517887
311 18 2 47.796870357 43.9809422569 56.9928393446
312 18 2 48.0086898323 44.8258764322 56.4318859059
313 18 2 48.0963619493 45.4994482092 55.6495402839
314 18 2 48.0355062113 45.9501740047 54.7186305957
315 18 2 47.8152800387 46.1468820509 53.7255261759
316 18 2 47.4393670408 46.0815536193 52.7622652428
317 18 2 46.9256412652 45.7700539057 51.9181658605
318 18 2 46.3045380259 45.2506859604 51.2716848364
319 18 2 45.6162798053 44.5806994674 50.8832665925
320 18 2 44.9072100832 43.8310725887 50.7898338184
321 18 2 44.2255692522 43.0800424948 51.0014220664
322 18 2 43.6170976345 42.4059742553 51.5002650378
323 18 2 43.1208663743 41.8802180726 52.2424139338
324 18 2 42.7657162071 41.5606059014 53.1617432709
325 19 1 28.9532502562 34.7575621374 8.99828902666
326 19 1 27.247772205 39.9326075071 9.90836655035
327 19 2 28.772057385 34.3838993432 9.3656129269
328 19 2 28.5140558706 33.8408162363 10.2093818341
329 19 2 28.3660749549 33.5475480649 11.1920035515
330 19 2 28.3236726088 33.5369208316 12.2271552863
331 19 2 28.3727835986 33.815998573 13.2237262753
332 19 2 28.4910014949 34.3654394915 14.094122287
333 19 2 28.6496209583 35.1412589087 14.762249602
334 19 2 28.8162541546 36.0788383509 15.1704507517
335 19 2 28.9577828192 37.0988153506 15.284759843
336 19 2 29.0433768984 38.1143171231 15.0979984584
337 19 2 29.0473046268 39.0388787888 14.6304299495
338 19 2 28.9512779082 39.7943244156 13.9279124867
339 19 2 28.7461192274 40.3178925464 13.0577192098
340 19 2 28.4325981555 40.5679567382 12.1024064606
341 19 2 28.0213612064 40.527819701 11.1522889936
342 19 2 27.5319614346 40.2072352111 10.2972080271
343 20 1 24.7938322334 48.3426520891 8.32466811376
344 20 1 23.5143063971 46.7424664245 3.19434545974
345 20 2 25.3034894277 48.5528091758 8.38353347909
346 20 2 26.3207229382 48.7494785664 8.38086007646
347 20 2 27.3419739163 48.6847487099 8.21866730031
348 20 2 28.2761678503 48.3744955587 7.89544185716
349 20 2 29.0401652453 47.8569738575 7.4243481507
350 20 2 29.5663395664 47.1893303252 6.83202838163
351 20 2 29.8087412158 46.4423948844 6.15617418222
352 20 2 29.7472857165 45.6942247033 5.44209112482
353 20 2 29.3895843584 45.0229894933 4.73856924
354 20 2 28.7702504498 44.4998465487 4.09343593568
355 20 2 27.9477444064 44.1824549499 3.54919665671
356 20 2 26.9990452411 44.1097200919 3.13916062723
357 20 2 26.0126341327 44.2982475617 2.88440480386
358 20 2 25.0804296027 44.7408295833 2.79185276745
359 20 2 24.2894093877 45.4071019876 2.85364365722
360 20 2 23.7136826517 46.2463118247 3.04784866718
361 21 1 21.8269506371 8.90194880836 54.8560901994
362 21 1 20.6271223818 13.0269807896 51.3829771328
363 21 2 21.6592815678 8.40033827524 54.6897906374
364 21 2 21.1400199346 7.57199430806 54.3467692977
365 21 2 20.39845189 6.95212248706 53.9735592068
366 21 2 19.5055205526 6.59805911899 53.58527739
367 21 2 18.5459654007 6.54291278057 53.1984146199
368 21 2 17.6105984949 6.79254656018 52.8293323271
369 21 2 16.7880272022 7.32504365306 52.4927712989
370 21 2 16.1565778707 8.09270501948 52.2005080966
371 21 2 15.7771565926 9.02639702469 51.9602816527
372 21 2 15.6876977768 10.041852785 51.7750878886
373 21 2 15.8997065285 11.047352869 51.6429066437
374 21 2 16.39720999 11.9520852785 51.5568858083
375 21 2 17.138213224 12.6744227196 51.5059658744
376 21 2 18.0585269395 13.1493627121 51.4758879809
377 21 2 19.0776181746 13.3344523922 51.4504935704
378 21 2 20.1059506603 13.2136579774 51.4131971984
379 22 1 59.7618405958 38.3208293019 43.6562187874
380 22 1 55.3060704287 35.3154492368 44.9336356902
381 22 2 59.6601030238 38.7695644454 43.3469166286
382 22 2 59.3527146925 39.4554145892 42.6337742829
383 22 2 58.9040403494 39.893523741 41.8090308584
384 22 2 58.3383461011 40.0501084653 40.9552620063
385 22 2 57.6905641057 39.9170455255 40.1576889679
386 22 2 57.0031086 39.5126122956 39.4964108861
387 22 2 56.3220099553 38.8798208262 39.039103983
388 22 2 55.692719132 38.0824974111 38.8348530528
389 22 2 55.1559649459 37.199464991 38.9096775143
390 22 2 54.7440417459 36.3173586536 39.26415981
391 22 2 54.4778658699 35.5227290765 39.8733923185
392 22 2 54.3650691771 34.8941536644 40.6892476173
393 22 2 54.3993034237 34.4950744287 41.6447651687
394 22 2 54.560818889 34.3680154177 42.6602545943
395 22 2 54.8182645094 34.5307067633 43.6505592392
396 22 2 55.131545444 34.9744686268 44.5328179743
397 23 1 53.2331115827 7.50591801004 3.31063380378
398 23 1 48.6187731505 10.4195529544 4.16888977089
399 23 2 53.6974732497 7.80731836698 3.28050648794
400 23 2 54.441149482 8.49718388277 3.06960072034
401 23 2 54.9616810639 9.30701752444 2.68663028251
402 23 2 55.2084650602 10.1763837283 2.17992516722
403 23 2 55.1558498966 11.0394206968 1.60909345235
404 23 2 54.8054734318 11.8308435253 1.03958818396
405 23 2 54.1861136715 12.4918947464 0.536741506048
406 23 2 53.3510657296 12.9756999166 0.159809810261
407 23 2 52.3732841215 13.2515400959 -0.0434273258408
408 23 2 51.3387331546 13.3076517975 -0.0410221195664
409 23 2 50.3385515117 13.1522991981 0.180229461902
410 23 2 49.4607452037 12.8130208801 0.61358418921
411 23 2 48.7821660565 12.3341197638 1.23296619816
412 23 2 48.3615068731 11.7726250142 1.99534373504
413 23 2 48.2339517409 11.1930939852 2.84465138596
414 23 2 48.4079690967 10.6617279896 3.71690028948
415 24 1 44.1372725168 39.9233546773 49.1057435298
416 24 1 40.2006145248 36.0606515262 48.7891376523
417 24 2 43.9696029295 40.4117619007 49.3075525526
418 24 2 43.4857927356 41.3019635811 49.5241597444
419 24 2 42.8095873428 42.0869402124 49.5269822
420 24 2 41.9903471425 42.6896800572 49.3294975552
421 24 2 41.0904697663 43.049781774 48.963440903
422 24 2 40.1797027092 43.1289598383 48.4759122239
423 24 2 39.3287860312 42.9145341657 47.9250833492
424 24 2 38.6030045902 42.4205858676 47.374895754
425 24 2 38.056237502 41.6866737957 46.8892324621
426 24 2 37.7260472023 40.7742288581 46.5260952799
427 24 2 37.6302557316 39.7609547567 46.3323180862
428 24 2 37.7653203034 38.7337455022 46.3392980494
429 24 2 38.1066562202 37.7807652569 46.5601338599
430 24 2 38.6108777026 36.9834124077 46.9884318189
431 24 2 39.2197523873 36.4089003201 47.5988886075
432 24 2 39.8655090511 36.1041310198 48.3495976163
433 25 1 38.2482105541 54.6726162805 52.3827025301
434 25 1 38.7551957494 49.3773884682 50.8922262677
435 25 2 37.8747234396 54.9621561924 52.0927790873
436 25 2 37.2906650453 55.4135249809 51.365735746
437 25 2 36.8892618963 55.7015054499 50.4550257084
438 25 2 36.6931160943 55.7868911889 49.4412771641
439 25 2 36.7061210826 55.6489417557 48.4145099873
440 25 2 36.9131067686 55.287273112 47.4659306658
441 25 2 37.2812222379 54.7218926277 46.6796190734
442 25 2 37.7629300269 53.9913754624 46.124864814
443 25 2 38.3003390357 53.1493485428 45.8498516595
444 25 2 38.8304811469 52.2596026117 45.8772657278
445 25 2 39.2910506018 51.3902778723 46.2022277039
446 25 2 39.6260830029 50.6076531906 46.792737576
447 25 2 39.79105632 49.9701049544 47.5925913516
448 25 2 39.7569489536 49.5227862208 48.5265039007
449 25 2 39.5128849766 49.2935111365 49.5069709945
450 25 2 39.0671254457 49.2902197523 50.4422450819
451 26 1 43.5829420923 56.3296733625 49.2849242882
452 26 1 39.6375315889 55.3781776916 53.0327747401
453 26 2 43.4597430319 56.7188039716 48.9097164144
454 26 2 43.0313061129 57.3216722258 48.1841534014
455 26 2 42.3724871702 57.7259317295 47.4942390114
456 26 2 41.5338927733 57.9076077516 46.9135469488
457 26 2 40.582515544 57.8630134506 46.5056955947
458 26 2 39.5956279578 57.60908592 46.3185493617
459 26 2 38.6537391642 57.1818424177 46.3798559807
460 26 2 37.8332567932 56.6330974894 46.6947173689
461 26 2 37.1995226039 56.0257402108 47.245124604
462 26 2 36.8008567575 55.4280020167 47.9915993896
463 26 2 36.6641535643 54.9072375881 48.8767923957
464 26 2 36.7924301389 54.5237856532 49.8307104977
465 26 2 37.164551398 54.325469273 50.7770964617
466 26 2 37.7371564675 54.3432368979 51.6403795886
467 26 2 38.4486109094 54.5883414985 52.3525637804
468 26 2 39.2246245369 55.0513148878 52.8594252032
469 27 1 15.5625340498 3.13142142449 40.0084790241
470 27 1 10.3563523949 2.88148787315 41.8391064733
471 27 2 15.9193960084 3.37991849561 40.3523981079
472 27 2 16.4237277235 4.01431361923 40.9978765037
473 27 2 16.6717524655 4.81290010167 41.6095899731
474 27 2 16.6346811887 5.69676051076 42.148910387
475 27 2 16.3097105875 6.57920492387 42.58380805
476 27 2 15.7202786101 7.3736724826 42.8917711213
477 27 2 14.9139281524 8.00162118369 43.0618575089
478 27 2 13.9579736498 8.39968677269 43.095692212
479 27 2 12.9333655469 8.52545822638 43.0073192067
480 27 2 11.9273118802 8.36134340421 42.8219213749
481 27 2 11.025329499 7.91617252488 42.5735251523
482 27 2 10.3034494331 7.2243933155 42.3018991096
483 27 2 9.82128686764 6.34293119331 42.0489291533
484 27 2 9.61660737824 5.34600066613 41.8548007377
485 27 2 9.70188469985 4.31834087822 41.7543360677
486 27 2 10.0631637791 3.34749186386 41.7738201484
487 28 1 35.6858397279 24.4096588582 6.53000332849
488 28 1 33.6633357011 29.2055867347 8.38109606672
489 28 2 35.9912995077 24.1277926295 6.89691931359
490 28 2 36.673261029 23.8068469744 7.60781479194
491 28 2 37.4363951781 23.7810126668 8.30810678116
492 28 2 38.201565546 24.0558662689 8.95030598443
493 28 2 38.8894501277 24.6095774434 9.4922181071
494 28 2 39.427771311 25.3948987306 9.90078975387
495 28 2 39.7578837879 26.3434720283 10.1551211574
496 28 2 39.8401199172 27.3720592495 10.2483711364
497 28 2 39.6574053246 28.3901292522 10.1883806507
498 28 2 39.2168151856 29.3081095107 9.99695811903
499 28 2 38.5489293429 30.045550412 9.70789163984
500 28 2 37.7050450347 30.5384580228 9.36386929635
501 28 2 36.7525012893 30.7451269659 9.01258825196
502 28 2 35.7685411519 30.6499417534 8.70240728127
503 28 2 34.8332711882 30.264800097 8.47793899698
504 28 2 34.0223599845 29.6280284632 8.37598352954
505 29 1 32.5998717975 14.1615702482 57.5983004087
506 29 1 28.3326356414 11.5868466459 55.2151333938
507 29 2 32.6807699705 14.0347533552 58.1319243861
508 29 2 32.6025735819 13.8465252112 59.1477518822
509 29 2 32.2300721329 13.7207398441 60.1063293298
510 29 2 31.5931941565 13.6500762917 60.9204811072
511 29 2 30.7459653992 13.6221893857 61.5161956064
512 29 2 29.7615845193 13.6208349809 61.8393711934
513 29 2 28.7257512243 13.6273505655 61.8607474279
514 29 2 27.728854972 13.6223562993 61.5785720736
515 29 2 26.8577362126 13.5875214339 61.0187608105
516 29 2 26.1877711141 13.5072351122 60.2325350894
517 29 2 25.776001226 13.3700292555 59.2917534339
518 29 2 25.6559342944 13.1696238489 58.2823617279
519 29 2 25.8344901206 12.9054993473 57.2965594781
520 29 2 26.2913698396 12.5829440309 56.4243960752
521 29 2 26.9809061076 12.2125719925 55.7455630328
522 29 2 27.8362255581 11.8093556912 55.3221303188
523 30 1 14.2312041098 26.6238971414 44.7288877335
524 30 1 10.8119424642 23.0711683083 47.2198230396
525 30 2 14.2310971756 27.1360621642 44.9411813181
526 30 2 13.9976016414 28.0738039076 45.3147723638
527 30 2 13.4792190746 28.9081679652 45.6442661345
528 30 2 12.7215850076 29.5595282229 45.9184384277
529 30 2 11.7921421077 29.9649388738 46.1311074457
530 30 2 10.7739929582 30.0838717604 46.2816972499
531 30 2 9.75832547997 29.9019104075 46.3752902562
532 30 2 8.83610139597 29.4320640459 46.4221639861
533 30 2 8.08976531368 28.7135818554 46.4368542986
534 30 2 7.58573011933 27.8083755068 46.4368304848
535 30 2 7.3683236208 26.7953760792 46.4409029893
536 30 2 7.45574818643 25.7633397026 46.4675088883
537 30 2 7.83842164782 24.802757674 46.5330313991
538 30 2 8.47985068885 23.9976084176 46.6503065941
539 30 2 9.31995711391 23.4177030757 46.8274534266
540 30 2 10.2805538148 23.1123224101 47.0671337104
541 31 1 20.4131217433 32.8480613775 34.0930789257
542 31 1 19.7019148348 28.092958996 36.8135893808
543 31 2 19.9768954436 33.1901112003 34.102572198
544 31 2 19.0438341017 33.6376216313 34.0517690718
545 31 2 18.0274777924 33.798764344 33.9313411276
546 31 2 17.0139666748 33.6563866825 33.7701771513
547 31 2 16.0891815767 33.2210010617 33.6008789095
548 31 2 15.3309161861 32.5298267891 33.4567895851
549 31 2 14.8017863648 31.6433976237 33.3689546358
550 31 2 14.5435228801 30.6400442866 33.3632920832
551 31 2 14.5731677564 29.6087548243 33.4582301546
552 31 2 14.8815209406 28.6410635865 33.6630275993
553 31 2 15.4339788622 27.8227081149 33.9769297784
554 31 2 16.1736884565 27.2258143951 34.3892374481
555 31 2 17.0267291692 26.9023227658 34.8802819669
556 31 2 17.9088506174 26.8792536963 35.4232180404
557 31 2 18.733151787 27.1562449421 35.9864705972
558 31 2 19.4180018277 27.7055845632 36.536612773
559 32 1 33.539676469 49.0443540439 57.9625648416
560 32 1 29.9233961428 45.0079513411 56.8911354765
561 32 2 33.4060616674 49.370065877 58.3908643567
562 32 2 32.9491078996 49.9933118426 59.0809424186
563 32 2 32.2539633827 50.574727639 59.5831174712
564 32 2 31.3764797477 51.0486494894 59.863956502
565 32 2 30.3891283489 51.3592114028 59.9102006853
566 32 2 29.3743946938 51.4654372099 59.7299738889
567 32 2 28.417260109 51.3449754312 59.352042205
568 32 2 27.5974559201 50.996136555 58.8231919978
569 32 2 26.9821961542 50.4380470315 58.2039654518
570 32 2 26.6200511607 49.7089059481 57.5631423128
571 32 2 26.5365205541 48.8625032848 56.9714707988
572 32 2 26.7317089923 47.9633171012 56.4952190882
573 32 2 27.1803166372 47.0806365335 56.1901351529
574 32 2 27.8339451672 46.2822462753 56.0963654797
575 32 2 28.6255091552 45.6282481839 56.2347958251
576 32 2 29.4753507255 45.1655831561 56.6051475344
577 33 1 56.9164491052 41.9312142987 10.576946142
578 33 1 57.730891293 40.2988114458 15.7913431263
579 33 2 57.2983196493 42.2812705103 10.3794186141
580 33 2 57.9680638049 43.0532142338 10.2091374788
581 33 2 58.5407883534 43.9098733023 10.3167099795
582 33 2 58.9804022816 44.7661467018 10.7000968218
583 33 2 59.2629472533 45.5369685704 11.3321189709
584 33 2 59.3787813482 46.1450617253 12.1629349485
585 33 2 59.3334578967 46.5279812708 13.1245837501
586 33 2 59.1472193088 46.6438062839 14.137179309
587 33 2 58.8531520326 46.4749607944 15.1161918977
588 33 2 58.4941708129 46.0298157874 15.9801527868
589 33 2 58.1191071269 45.3419262108 16.6580799017
590 33 2 57.7782583257 44.4669725311 17.095947649
591 33 2 57.5188031652 43.4776856076 17.2616112053
592 33 2 57.3805015882 42.4572174695 17.1477364315
593 33 2 57.3920707125 41.4915622302 16.7724683601
594 33 2 57.5685673418 40.661717954 16.1777773241