LAMMPS input file for bananas

4320 atoms

2 atom types

0 63.4960420787 xlo xhi
0 63.4960420787 ylo yhi
0 63.4960420787 zlo zhi

Masses

 1 1
 2 1

Atoms

1 1 1 39.3166727643 53.7031759003 29.7810719304
2 1 1 43.7081548289 54.1003394788 26.4531390239
3 1 2 39.3900563389 53.9097477665 30.2903110717
4 1 2 39.7211290756 54.1626764444 31.2389247645
5 1 2 40.2859059711 54.2359721196 32.1044331778
6 1 2 41.0435869573 54.1385143859 32.8043414035
7 1 2 41.9357892739 53.8947465539 33.2712485481
8 1 2 42.8918689006 53.5424477087 33.4589911437
9 1 2 43.8353595713 53.129289247 33.3468508252
10 1 2 44.6909424694 52.708489757 32.9414427532
11 1 2 45.391311337 52.3339642862 32.2761126605
12 1 2 45.88330726 52.0554101288 31.4078974773
13 1 2 46.1327639615 51.9137770505 30.4123265676
14 1 2 46.1276219662 51.9375348264 29.3765374292
15 1 2 45.8790277897 52.1400782975 28.3913333443
16 1 2 45.420317963 52.5185064663 27.5429069025
17 1 2 44.8039804973 53.0538869154 26.9049837768
18 1 2 44.0968707417 53.7129814464 26.5321028256
19 2 1 20.2456047533 34.1645054317 20.0917721876
20 2 1 20.6926210921 35.3574123476 25.4671922218
21 2 2 20.3916472149 34.5746850726 19.7485436198
22 2 2 20.5196289139 35.4689910222 19.2413084038
23 2 2 20.4622798746 36.4634589853 18.9563617963
24 2 2 20.2399181046 37.4750162818 18.9288465201
25 2 2 19.8879020808 38.4190325842 19.1704411203
26 2 2 19.4534079188 39.2170337465 19.668295496
27 2 2 18.991129396 39.8038545121 20.3862021526
28 2 2 18.5582927601 40.1335781533 21.2678964183
29 2 2 18.2094407096 40.1837216582 22.2421848186
30 2 2 17.9914609722 39.9572849968 23.2294341709
31 2 2 17.9393126144 39.4824776824 24.1488299367
32 2 2 18.0728396154 38.8101475491 24.9257422503
33 2 2 18.394962142 38.0091461083 25.4985282321
34 2 2 18.8914103826 37.1600529171 25.8241505719
35 2 2 19.5320252029 36.3478309669 25.8821002648
36 2 2 20.2735070701 35.6540825344 25.6762659525
37 3 1 25.5264808128 59.9171161667 48.2372176066
38 3 1 21.7915753552 55.9137119561 47.5015362827
39 3 2 25.3781951526 60.4138916101 48.0407306863
40 3 2 25.0532668021 61.2207651508 47.4778571059
41 3 2 24.6766653274 61.8058558108 46.7102046715
42 3 2 24.2639849062 62.1162746437 45.8119925422
43 3 2 23.8341082155 62.1241683058 44.8693400441
44 3 2 23.4074853264 61.8292578143 43.9724171245
45 3 2 23.0042697347 61.2588639758 43.2072256016
46 3 2 22.6424814236 60.4654171674 42.6477603289
47 3 2 22.3363643903 59.5216784484 42.3492647621
48 3 2 22.095088344 58.514107584 42.3431956658
49 3 2 21.9219129112 57.5349824689 42.6343559131
50 3 2 21.8138905292 56.6739882438 43.2004567173
51 3 2 21.7621351094 56.0100427344 43.9941491944
52 3 2 21.7526319794 55.6041033026 44.9473400879
53 3 2 21.767515284 55.4936107462 45.9773982869
54 3 2 21.7866964094 55.6890766697 46.9946864312
55 4 1 57.5562404772 42.5083645827 63.213230269
56 4 1 59.3275470808 37.8184185637 60.8926979343
57 4 2 57.0235352795 42.6292425641 63.1183868505
58 4 2 56.0868743373 42.815890718 62.716791585
59 4 2 55.2947461961 42.9220587796 62.0574651395
60 4 2 54.7111985318 42.920693181 61.2013575121
61 4 2 54.3812674673 42.7945417601 60.2273547796
62 4 2 54.3268726504 42.5377262488 59.2250888427
63 4 2 54.5448193363 42.1562780617 58.2867677176
64 4 2 55.0070895802 41.6675885488 57.4987710217
65 4 2 55.6633959978 41.0988238201 56.9337767026
66 4 2 56.4457653266 40.4844486276 56.6441366371
67 4 2 57.2747340062 39.8630849953 56.6571048981
68 4 2 58.0665910702 39.2739919245 56.9723536179
69 4 2 58.7410081767 38.7534870413 57.5620028731
70 4 2 59.228361322 38.3316363419 58.3731618651
71 4 2 59.4760768827 38.0295137571 59.3327497746
72 4 2 59.4534235604 37.8572803201 60.3541568831
73 5 1 60.4097604925 18.8885755099 56.6695905621
74 5 1 58.8452616611 14.6094639326 59.7936165826
75 5 2 60.180682509 19.3743446384 56.8071885971
76 5 2 59.5519582918 20.1596658388 57.0550322618
77 5 2 58.7135251464 20.7223529371 57.2871165166
78 5 2 57.7415389912 21.0100105157 57.5014667973
79 5 2 56.7243287446 20.9953113625 57.6977249441
80 5 2 55.7543453798 20.6784872736 57.8771818467
81 5 2 54.9197352662 20.0873079253 58.0426597836
82 5 2 54.296305863 19.2745497426 58.1982551784
83 5 2 53.9406160722 18.3131854689 58.348965222
84 5 2 53.8848210458 17.2897328958 58.5002323922
85 5 2 54.1337413293 16.2963689973 58.657448386
86 5 2 54.6644234824 15.4225282451 58.8254626812
87 5 2 55.4282322234 14.7467508957 59.0081405192
88 5 2 56.3552834051 14.3295242558 59.2080105985
89 5 2 57.3608137682 14.2077694258 59.4260345911
90 5 2 58.3529068859 14.3914760405 59.6615194881
91 6 1 60.4883002118 30.8690908249 56.37415612
92 6 1 63.1937948449 35.4448993793 57.8775742005
93 6 2 60.1728092909 30.9223849161 55.9213793464
94 6 2 59.5000453076 31.2108463639 55.1881477138
95 6 2 58.7826551931 31.730484809 54.6507676609
96 6 2 58.0968868901 32.4453499414 54.3472224613
97 6 2 57.5161060975 33.3016970603 54.2941819665
98 6 2 57.1041091833 34.2328857599 54.4854831939
99 6 2 56.9093083159 35.1654540244 54.8926920658
100 6 2 56.9603188249 36.0258140942 55.4676951
101 6 2 57.2633509896 36.746959794 56.1470848246
102 6 2 57.8016439893 37.274573966 56.8579392002
103 6 2 58.5369936067 37.5719793338 57.5244682683
104 6 2 59.4132344406 37.6234815384 58.0749222037
105 6 2 60.361359232 37.4357996368 58.4481311196
106 6 2 61.3058086914 37.0374536781 58.5990805387
107 6 2 62.1713585257 36.4761651769 58.5030143428
108 6 2 62.889975932 35.8145074253 58.1576912269
109 7 1 51.1037812437 19.3738442168 26.8582312377
110 7 1 46.4297555622 20.4390315027 29.6035638289
111 7 2 51.4748526829 19.7857713632 26.8601288785
112 7 2 51.9845510825 20.6854532081 26.7950894244
113 7 2 52.2136926484 21.6869958927 26.6614615642
114 7 2 52.139516387 22.7059659211 26.4892756922
115 7 2 51.7669079138 23.656341342 26.3120766622
116 7 2 51.1279541428 24.458352419 26.1638662641
117 7 2 50.2790186501 25.0457524291 26.0760040514
118 7 2 49.2956042843 25.3718558746 26.0743490019
119 7 2 48.265471284 25.4137937411 26.1769025408
120 7 2 47.2806381666 25.1745979474 26.3921677589
121 7 2 46.4289944859 24.6829249937 26.718374379
122 7 2 45.7862899348 23.990443999 27.1436401114
123 7 2 45.4092299629 23.1671271981 27.6470536929
124 7 2 45.3303072264 22.2948721601 28.2005808932
125 7 2 45.5548399694 21.4600370434 28.7716197592
126 7 2 46.06048728 20.7455692808 29.3259721965
127 8 1 31.6460130376 53.6471654685 17.9372001564
128 8 1 37.1584516944 53.685702836 17.5773029651
129 8 2 31.4426483065 53.8130385025 18.4255755354
130 8 2 31.2160872564 53.9671486133 19.4247602908
131 8 2 31.2166853646 53.9189930987 20.4597147342
132 8 2 31.4563913208 53.6872500621 21.4406766247
133 8 2 31.9253597736 53.3073311191 22.2828049986
134 8 2 32.5928487079 52.8281537228 22.913913196
135 8 2 33.410021497 52.3076824693 23.281048482
136 8 2 34.3143982311 51.8076457793 23.3553185472
137 8 2 35.2355505939 51.3879095176 23.1345249642
138 8 2 36.1015212153 51.1010203797 22.6433635686
139 8 2 36.8453823936 50.9874164007 21.9311734995
140 8 2 37.4113363762 51.0717411367 21.0674400686
141 8 2 37.7598011762 51.3605974706 20.1354613603
142 8 2 37.871018364 51.8419457765 19.2247558334
143 8 2 37.7468539962 52.4862012999 18.4229029532
144 8 2 37.4106285288 53.2489307289 17.8075605571
145 9 1 47.3687207546 26.3908440788 43.5397961434
146 9 1 47.9406969523 26.2398022637 38.0472538668
147 9 2 47.6997154966 26.0444051066 43.8187300197
148 9 2 48.2346173668 25.2377555069 44.1883871903
149 9 2 48.6319188615 24.2904525877 44.3233639028
150 9 2 48.871662022 23.2899314528 44.2011727134
151 9 2 48.9482499108 22.328477904 43.8227663448
152 9 2 48.8709567574 21.4948168368 43.2124508487
153 9 2 48.6630826367 20.866025204 42.415670174
154 9 2 48.35982973 20.5005066567 41.4948640721
155 9 2 48.00509374 20.4326682081 40.5237768806
156 9 2 47.6474629148 20.6697841259 39.5807359241
157 9 2 47.335789359 21.1913329024 38.7415121879
158 9 2 47.1147362949 21.9508677352 38.072413995
159 9 2 47.0207071292 22.8802500288 37.6242431798
160 9 2 47.0785273799 23.8958600457 37.4276646371
161 9 2 47.2991818962 24.9062186217 37.4904112979
162 9 2 47.6788136196 25.8203252476 37.7965792946
163 10 1 23.7666884085 57.8171013556 35.0606525249
164 10 1 18.4165351715 56.526866428 34.5819613579
165 10 2 23.8696261516 58.3519269099 35.164320435
166 10 2 23.9186496372 59.3867865021 35.1749191855
167 10 2 23.7659466132 60.3882210003 34.9575238235
168 10 2 23.4111205476 61.2694209872 34.5439599743
169 10 2 22.8721978836 61.9545361 33.9839334967
170 10 2 22.183984977 62.3855885878 33.3404999266
171 10 2 21.3948955905 62.5277578292 32.6843171334
172 10 2 20.5625381082 62.3725541384 32.087205044
173 10 2 19.7484646855 61.9385925776 31.6155994489
174 10 2 19.0125609347 61.2698962439 31.3244965566
175 10 2 18.4075875112 60.4318836814 31.252440237
176 10 2 17.9743711212 59.5054061561 31.4180088504
177 10 2 17.7380832765 58.5793782787 31.8181218793
178 10 2 17.7059459781 57.7426736759 32.4283207099
179 10 2 17.8665734504 57.0760243965 33.2049979689
180 10 2 18.1910099242 56.6446624011 34.0893722192
181 11 1 4.16010122318 19.7112017805 28.8020473126
182 11 1 9.12499533594 19.1536479418 31.1593659647
183 11 2 4.13865767339 19.5698598525 28.2663755646
184 11 2 4.28559323752 19.4473894977 27.2481118643
185 11 2 4.67281931301 19.5053875901 26.2888714362
186 11 2 5.27664844738 19.7232640454 25.4756247098
187 11 2 6.05365039825 20.0658562937 24.8820351791
188 11 2 6.94461068385 20.4866342538 24.5617451716
189 11 2 7.87992782481 20.9319414261 24.5434864937
190 11 2 8.78595733295 21.3458855386 24.8284616036
191 11 2 9.59172420952 21.6754329786 25.39023401
192 11 2 10.2353921267 21.8752426645 26.1771378879
193 11 2 10.6698996435 21.911798764 27.1169872804
194 11 2 10.8672497304 21.7664655731 28.1236556558
195 11 2 10.8210616238 21.4371861103 29.1049261106
196 11 2 10.5471524156 20.9386696054 29.9708966938
197 11 2 10.0820953672 20.301050792 30.6421747299
198 11 2 9.47988635493 19.5671432074 31.0571132482
199 12 1 49.5783900734 8.8657477246 59.1005014829
200 12 1 46.97937599 4.63433422673 61.5208850611
201 12 2 49.4942110499 9.35898734981 59.3392694711
202 12 2 49.1102693212 10.2197056838 59.7696213151
203 12 2 48.4634297077 10.9283448325 60.1606188632
204 12 2 47.612553766 11.4156569139 60.4952635675
205 12 2 46.6351004182 11.6325674168 60.7616932915
206 12 2 45.6200657789 11.5546482108 60.9542635117
207 12 2 44.6598713971 11.1843441058 61.074061801
208 12 2 43.8419402787 10.5507500135 61.1288086992
209 12 2 43.2407285134 9.70695902434 61.1321540067
210 12 2 42.9109388011 8.72522311417 61.1024326414
211 12 2 42.8825344472 7.69036756961 61.06099346
212 12 2 43.1580082869 6.69205939 61.0302533671
213 12 2 43.7121554705 5.81663438004 61.0316540735
214 12 2 44.4943708178 5.13922787196 61.0837077425
215 12 2 45.433261345 4.7169263408 61.200309655
216 12 2 46.4431535443 4.5835641248 61.3894716921
217 13 1 47.2918489348 43.483239016 52.5964317053
218 13 1 44.6842399176 40.211845214 56.2042494483
219 13 2 47.251959536 44.0260307871 52.7021081791
220 13 2 46.9474551673 44.9932293804 52.9148380121
221 13 2 46.3704202073 45.8219943081 53.1464181509
222 13 2 45.5746065261 46.4371198242 53.3949160288
223 13 2 44.6337070893 46.7828728439 53.6568570728
224 13 2 43.6346390417 46.8280728655 53.9275414009
225 13 2 42.6696214413 46.5689339898 54.2014722043
226 13 2 41.8277697387 46.0294099946 54.4728567666
227 13 2 41.1869731424 45.259011012 54.7361344546
228 13 2 40.8067952252 44.3282908121 54.9864835547
229 13 2 40.7230448638 43.3224160155 55.2202607599
230 13 2 40.9445123555 42.3334033833 55.4353332468
231 13 2 41.4521682063 41.4517327355 55.6312730775
232 13 2 42.2008976179 40.7580999572 55.8093962041
233 13 2 43.1236125812 40.316061784 55.9726425239
234 13 2 44.1373667695 40.1662427759 56.1253079155
235 14 1 33.493623752 6.74213533926 24.429566015
236 14 1 30.441960774 3.6560870461 27.8474089111
237 14 2 33.5196961411 7.28010891549 24.5610431989
238 14 2 33.3341679613 8.26669473712 24.8173198506
239 14 2 32.8607659479 9.14919352361 25.082906817
240 14 2 32.1435172038 9.84645579029 25.3527763812
241 14 2 31.2486748098 10.2942158661 25.6215104796
242 14 2 30.2586790333 10.450949538 25.8837945427
243 14 2 29.2646431181 10.3016588717 26.134901905
244 14 2 28.3580485558 9.85923923322 26.3711246269
245 14 2 27.6224067925 9.1633039113 26.5901114644
246 14 2 27.1256473836 8.2765734714 26.7910821781
247 14 2 26.9139263962 7.27915894409 26.9748986501
248 14 2 27.0074194073 6.26125991868 27.1439863259
249 14 2 27.3984825536 5.31494309171 27.3021131414
250 14 2 28.0523492494 4.52575063369 27.4540460855
251 14 2 28.9102990678 3.96490324882 27.605116702
252 14 2 29.8950099508 3.68280859822 27.7607351336
253 15 1 21.612332594 21.4917619124 24.0786852138
254 15 1 20.2472531042 16.4293090412 25.8182598674
255 15 2 21.5847709674 21.8872647057 24.4662409973
256 15 2 21.3187904087 22.5372819464 25.2279377481
257 15 2 20.8017692241 23.0118838971 25.9901005222
258 15 2 20.0873459405 23.2585315588 26.6987713302
259 15 2 19.2471517588 23.2454633566 27.3048678326
260 15 2 18.3642815607 22.9645901225 27.7686570636
261 15 2 17.5257200329 22.4322324014 28.063376985
262 15 2 16.8144132453 21.6876328768 28.177675774
263 15 2 16.3017083383 20.7893795057 28.1166465121
264 15 2 16.0408504216 19.8100653823 27.9013629639
265 15 2 16.062129425 18.8296720717 27.5669587598
266 15 2 16.3701192521 17.9282795041 27.1594250598
267 15 2 16.9432608812 17.1787669031 26.7314185819
268 15 2 17.7358274125 16.6401700392 26.3374620831
269 15 2 18.6820919528 16.3523002774 26.0289747558
270 15 2 19.7023184464 16.3321158774 25.8495855058
271 16 1 16.5644788494 29.863452118 60.9533184882
272 16 1 15.350994921 34.5844897932 63.5527897972
273 16 2 16.9322146543 29.911558319 60.5412047184
274 16 2 17.4773327707 30.1751379422 59.7004776328
275 16 2 17.8049059363 30.6535313945 58.8418243051
276 16 2 17.8972971665 31.316108871 58.0506827505
277 16 2 17.7583056816 32.1154526851 57.4063374664
278 16 2 17.4128206181 32.9916792643 56.9746928625
279 16 2 16.9045524501 33.8778973773 56.8022662502
280 16 2 16.2920488966 34.7063050915 56.9119479134
281 16 2 15.6433584534 35.4143697373 57.3009147211
282 16 2 15.0298279547 35.9505275944 57.9408874476
283 16 2 14.5195994995 36.2788837866 58.7807083486
284 16 2 14.171399482 36.3824840044 59.7510040529
285 16 2 14.029185837 36.2648598442 60.7705087598
286 16 2 14.1181413921 35.9497069135 61.7534713993
287 16 2 14.4423785204 35.4787250392 62.6174716133
288 16 2 14.9845643081 34.9078174399 63.290932151
289 17 1 20.9585605504 49.7686517933 57.333099103
290 17 1 20.1902898618 46.1209910528 61.4101473408
291 17 2 21.2560381475 50.2153253317 57.4722803421
292 17 2 21.6609849819 51.0613379189 57.9124289249
293 17 2 21.8490055253 51.847652574 58.560354499
294 17 2 21.8162119204 52.494985141 59.3686459924
295 17 2 21.5788429295 52.9367193096 60.2752754082
296 17 2 21.1717838146 53.1249785139 61.2092515108
297 17 2 20.6453866389 53.0349897537 62.0970904869
298 17 2 20.0608808107 52.6673415869 62.8695137993
299 17 2 19.484792187 52.0479304843 63.4677627398
300 17 2 18.9828794189 51.2256004355 63.8489541289
301 17 2 18.6141402264 50.2676909494 63.9899890025
302 17 2 18.4254339144 49.2538992384 63.8896580212
303 17 2 18.4472102716 48.2690160305 63.5687516982
304 17 2 18.6907341541 47.3951971206 63.0681653994
305 17 2 19.1470587237 46.7044750899 62.4451718403
306 17 2 19.7878409283 46.2521937283 61.7682008311
307 18 1 28.9177557297 20.4459426998 48.7231338961
308 18 1 25.7786318492 21.458454886 53.1546924703
309 18 2 29.4622870728 20.51396506 48.8021285986
310 18 2 30.4139192028 20.848892214 49.0380737233
311 18 2 31.2055898831 21.4204367881 49.3845478851
312 18 2 31.7673755339 22.1696889493 49.8277950991
313 18 2 32.050305981 23.0215412928 50.3452387754
314 18 2 32.0308279572 23.8915346813 50.9075395149
315 18 2 31.7129519188 24.6935564701 51.4812693169
316 18 2 31.1278865036 25.3476894437 52.0319584524
317 18 2 30.3311939472 25.7874960572 52.5272372875
318 18 2 29.3977257333 25.9660740403 52.9397866891
319 18 2 28.4148000812 25.8603314143 53.2498280907
320 18 2 27.4742431236 25.4730912642 53.4469262562
321 18 2 26.6640191999 24.8328344217 53.5309404236
322 18 2 26.0602131418 23.991103514 53.5120371349
323 18 2 25.7200953443 23.0178049906 53.4097635834
324 18 2 25.6769017221 21.9948373377 53.2512659388
325 19 1 44.0112759391 61.5782150045 48.6073797009
326 19 1 42.5257867054 59.030939628 53.2788570854
327 19 2 43.7709455611 61.3821708996 48.1478259974
328 19 2 43.3944210949 60.8079841843 47.3719465264
329 19 2 43.127176836 60.007421094 46.7710062167
330 19 2 42.9757882106 59.049666 46.4059902236
331 19 2 42.9362707138 58.0182309045 46.3163798312
332 19 2 42.9944430861 57.0033435449 46.5165538396
333 19 2 43.1272198978 56.0937233767 46.9944779748
334 19 2 43.3047157237 55.3684950323 47.7128017816
335 19 2 43.4929691201 54.8899763221 48.612263017
336 19 2 43.6570381196 54.6979981329 49.6170892455
337 19 2 43.7641850976 54.8062739486 50.6419042941
338 19 2 43.7868607201 55.2011499034 51.5995100625
339 19 2 43.705214991 55.8428492946 52.4088343964
340 19 2 43.5089065266 56.6690981231 53.002320598
341 19 2 43.1980451454 57.6008012017 53.3320850384
342 19 2 42.7831818577 58.5492514702 53.3742816224
343 20 1 18.130978583 14.5051705708 2.15851005429
344 20 1 21.9043355793 14.311424924 6.18867514565
345 20 2 18.0916132963 14.9933338201 1.89864738995
346 20 2 18.003037967 15.9905484258 1.63187510444
347 20 2 17.9176379721 17.0224159807 1.66937445306
348 20 2 17.8615950713 18.0003616948 2.00691168774
349 20 2 17.8584152039 18.8407256096 2.61290540904
350 20 2 17.9267859848 19.4723879802 3.43130512626
351 20 2 18.0788733786 19.8432516493 4.3867001099
352 20 2 18.3192128044 19.9249905644 5.39119287807
353 20 2 18.6442957446 19.7156316215 6.35241081707
354 20 2 19.0428895364 19.2397345084 7.18192569819
355 20 2 19.4970611998 18.5461531546 7.80331367445
356 20 2 19.98381198 17.7035828264 8.15912110996
357 20 2 20.4771736229 16.7942987368 8.2161013253
358 20 2 20.950575312 15.90665688 7.96824494346
359 20 2 21.3792655271 15.1270406184 7.43732762851
360 20 2 21.7425680796 14.5319870703 6.67092529204
361 21 1 59.6264179944 56.8360755018 38.4678254964
362 21 1 57.1112440291 53.7212625893 42.2743766264
363 21 2 59.5538779287 57.3824293703 38.5279668078
364 21 2 59.1909971862 58.3445912328 38.6545058458
365 21 2 58.5632563544 59.1549262491 38.8053323041
366 21 2 57.7285130444 59.7415129132 38.9858030859
367 21 2 56.7634925901 60.0528237835 39.1985730932
368 21 2 55.7567947388 60.0624220711 39.4433532401
369 21 2 54.8008180213 59.7713712829 39.716936802
370 21 2 53.9833378723 59.2081382851 40.0134916999
371 21 2 53.3795061349 58.4259986251 40.3250920791
372 21 2 53.0450011701 57.4981806074 40.6424407294
373 21 2 53.0109529236 56.5111907295 40.955716501
374 21 2 53.2811055143 55.5569288458 41.2554694761
375 21 2 53.8314759678 54.7243117413 41.5334823039
376 21 2 54.6125402006 54.0911686048 41.7835191895
377 21 2 55.5537470075 53.7171471058 42.0018942709
378 21 2 56.5699486159 53.6382766693 42.1878075743
379 22 1 3.12731452805 7.68764614019 17.9381289919
380 22 1 5.68543195336 2.96006382586 16.6637696388
381 22 2 2.87059379128 7.93598760609 17.5140976633
382 22 2 2.5976875496 8.36999347099 16.6137582252
383 22 2 2.60865851199 8.71750102429 15.637762247
384 22 2 2.89536825089 8.93179278028 14.665483182
385 22 2 3.42454548629 8.97829351714 13.7759556973
386 22 2 4.14081867389 8.83772171594 13.0406718741
387 22 2 4.97176297344 8.50784701964 12.5170648965
388 22 2 5.83450157931 8.00369352408 12.2432741698
389 22 2 6.64325971984 7.35617037188 12.2346690156
390 22 2 7.31718279849 6.60925446666 12.4824477996
391 22 2 7.78770607424 5.81598209581 12.9544401764
392 22 2 8.00480415447 5.03361481467 13.5980393313
393 22 2 7.94155067577 4.31842020882 14.3449969501
394 22 2 7.59657257003 3.720543254 15.1176438712
395 22 2 6.99417521589 3.27943573562 15.8359694215
396 22 2 6.18212706848 3.02026032399 16.4249141756
397 23 1 54.409042852 38.8010066157 21.8832195463
398 23 1 51.8335632703 42.5647534249 25.0007676119
399 23 2 54.0775406189 38.4180187966 21.6578128297
400 23 2 53.3783921307 37.6802881691 21.4568279444
401 23 2 52.6190919965 36.9820313342 21.5535270125
402 23 2 51.8533532408 36.3973171678 21.9345827995
403 23 2 51.1354757516 35.9898654351 22.5607497159
404 23 2 50.51539699 35.8072389044 23.3704409477
405 23 2 50.0341403249 35.8765081277 24.2853419304
406 23 2 49.7200758617 36.2017840322 25.2175485117
407 23 2 49.5863345839 36.7638432203 26.0775791802
408 23 2 49.6296114983 37.5218801312 26.7825310662
409 23 2 49.8304668767 38.4172263583 27.2636363165
410 23 2 50.1550981351 39.3786981178 27.4725301003
411 23 2 50.5584208489 40.3290844604 27.3856589345
412 23 2 50.9881780775 41.1921848431 27.0064275209
413 23 2 51.3897034452 41.8997546045 26.364888416
414 23 2 51.7109038347 42.3977252839 25.5150028217
415 24 1 14.9954637606 9.94942219206 37.5083525837
416 24 1 15.520368338 7.59906547078 32.536603442
417 24 2 15.4732659116 10.0902869353 37.751753111
418 24 2 16.4267466969 10.1321732081 38.1549527433
419 24 2 17.3908805581 9.88918172211 38.446244773
420 24 2 18.2880885503 9.38972296492 38.5841171044
421 24 2 19.0468918426 8.68558373039 38.5410414371
422 24 2 19.6084268227 7.84720689085 38.3059823973
423 24 2 19.9318103576 6.9572707175 37.8854033822
424 24 2 19.9978661819 6.10315297706 37.3026774391
425 24 2 19.8108727636 5.3689666818 36.5959568745
426 24 2 19.3981733323 4.82789341329 35.8146957729
427 24 2 18.807683618 4.53551301691 35.0151423899
428 24 2 18.1035244594 4.52473764739 34.2552122735
429 24 2 17.3601773613 4.80281191396 33.5892094167
430 24 2 16.6556957046 5.35065255353 33.062876594
431 24 2 16.064590389 6.12458781914 32.7092260297
432 24 2 15.6510383637 7.06033804297 32.5455304215
433 25 1 45.2206299409 23.5833267905 4.72737391534
434 25 1 46.8199329636 28.72325549 3.48586118201
435 25 2 44.6943831397 23.5366226475 4.89549475075
436 25 2 43.7704088122 23.6235879177 5.35610141058
437 25 2 42.9901413129 23.9400134734 5.95984598272
438 25 2 42.4158266456 24.4697257954 6.64029989739
439 25 2 42.090938764 25.1771108461 7.32404273323
440 25 2 42.036217037 26.0103601936 7.93735429254
441 25 2 42.2477759105 26.9061932114 8.4129340002
442 25 2 42.6974590655 27.7956249392 8.69603517125
443 25 2 43.335405791 28.6102538767 8.7494550249
444 25 2 44.0945956548 29.2884965983 8.55692561855
445 25 2 44.8969572369 29.7812009175 8.12459662729
446 25 2 45.6604841303 30.0561259771 7.48047481745
447 25 2 46.3067096061 30.1008809173 6.67187130468
448 25 2 46.7678586463 29.9240542697 5.76108927226
449 25 2 46.9930254552 29.5544311352 4.81974520241
450 25 2 46.9528133867 29.0383694994 3.92224122539
451 26 1 46.9768489613 54.952117485 14.0177440077
452 26 1 44.3507098347 51.7135243861 17.6416782082
453 26 2 46.831676898 55.4869341288 14.0344118693
454 26 2 46.34201007 56.3998006777 14.0531488015
455 26 2 45.606813093 57.1296254681 14.0702131382
456 26 2 44.6908489994 57.6127302282 14.1029175899
457 26 2 43.6753572611 57.8079245578 14.1671493129
458 26 2 42.6506490286 57.7002603225 14.2759218366
459 26 2 41.7078755115 57.302394137 14.4381889159
460 26 2 40.9307197889 56.6534337479 14.6580284194
461 26 2 40.3877693206 55.8153734674 14.9342706436
462 26 2 40.1262643835 54.8674435574 15.2606049276
463 26 2 40.1677922466 53.8988886029 15.6261548529
464 26 2 40.5063195491 53.0008331065 16.0164696003
465 26 2 41.1087422249 52.2579757337 16.4148411035
466 26 2 41.9179028503 51.7408692558 16.803826944
467 26 2 42.8578003897 51.4994898535 17.1668401816
468 26 2 43.8405174875 51.5586819212 17.4896612094
469 27 1 30.9147341255 47.0585420459 25.2939260349
470 27 1 27.6607479856 42.6423239674 25.947059364
471 27 2 30.6768768107 47.5441226746 25.4164696555
472 27 2 30.0616980192 48.3732036425 25.5038184639
473 27 2 29.2657761824 49.030323975 25.413533862
474 27 2 28.3510122972 49.4509620097 25.1691556934
475 27 2 27.3901394956 49.5921508133 24.8082690184
476 27 2 26.4600936143 49.4363945032 24.3790783363
477 27 2 25.6350006983 48.9932629501 23.936013874
478 27 2 24.9794206104 48.2985195102 23.5347704165
479 27 2 24.5424625723 47.4108612904 23.2272308759
480 27 2 24.3533089902 46.4065690645 23.0567373028
481 27 2 24.4185555563 45.3725544839 23.054140374
482 27 2 24.7216100694 44.3984383135 23.2349874362
483 27 2 25.2242047693 43.5683817381 23.5981054064
484 27 2 25.8698843415 42.9534152952 24.1257076955
485 27 2 26.5891516674 42.604964632 24.7850154084
486 27 2 27.3058023015 42.5501631944 25.5312450528
487 28 1 30.0073162132 4.7885174593 35.0906373656
488 28 1 35.0897123902 6.15209805164 33.4090047869
489 28 2 29.8706320487 4.25674761723 35.0136967243
490 28 2 29.6911571648 3.3030094399 34.6508988931
491 28 2 29.6384414629 2.47015192321 34.0368798194
492 28 2 29.7338250093 1.8251855241 33.2316653546
493 28 2 29.9851490196 1.41799492633 32.312708299
494 28 2 30.3860411531 1.27679218486 31.3678287858
495 28 2 30.9164963343 1.4055452725 30.4872097114
496 28 2 31.5447001622 1.78361640976 29.7551768044
497 28 2 32.2299287081 2.36764314328 29.2425125617
498 28 2 32.9262603923 3.09549071758 29.0000046128
499 28 2 33.5867616141 3.89191549196 29.0538165629
500 28 2 34.1677646234 4.6754231972 29.4031032506
501 28 2 34.6328477199 5.36569692042 30.0200877817
502 28 2 34.9561549933 5.890917777 30.8525933191
503 28 2 35.1247530209 6.19431100997 31.8287988623
504 28 2 35.1398097141 6.23932085736 32.8637855389
505 29 1 13.272692284 16.9884065295 59.2756096835
506 29 1 10.5914738253 13.7002771947 62.8135842617
507 29 2 13.2233553237 17.5310814638 59.3778416163
508 29 2 12.9013843886 18.4954746911 59.5771665553
509 29 2 12.3080221117 19.3183771458 59.7874111022
510 29 2 11.4979072971 19.9251999395 60.0086125836
511 29 2 10.5454351632 20.2610492671 60.2398096307
512 29 2 9.53797641795 20.2957298308 60.4791298059
513 29 2 8.56791365161 20.0264970607 60.7239602698
514 29 2 7.72422091107 19.478307275 60.9711859352
515 29 2 7.08435395311 18.7015429783 61.2174733985
516 29 2 6.70719035919 17.7674206308 61.4595747709
517 29 2 6.62766300129 16.7614994586 61.6946237144
518 29 2 6.85357600399 15.7758829587 61.9203967012
519 29 2 7.36489341937 14.9008239116 62.1355156821
520 29 2 8.11556545012 14.2164980813 62.339573692
521 29 2 9.03772576545 13.785696409 62.5331719439
522 29 2 10.0478773358 13.6481017864 62.7178650296
523 30 1 39.438679713 26.6328747613 18.8416206778
524 30 1 38.5793281765 21.7324982332 21.242832014
525 30 2 39.2622359682 27.0700855755 19.133332688
526 30 2 38.7327144523 27.7636734916 19.691895825
527 30 2 37.9905473493 28.2372099311 20.238156974
528 30 2 37.1077816905 28.4422775067 20.740274582
529 30 2 36.1692796898 28.3549290506 21.1704306619
530 30 2 35.2649837796 27.9778703346 21.5073663273
531 30 2 34.4817185986 27.3402134464 21.7383194837
532 30 2 33.8952771581 26.4948233007 21.8601880587
533 30 2 33.5635125114 25.5134991433 21.8798127482
534 30 2 33.5210646028 24.4804302418 21.8133535049
535 30 2 33.7762029292 23.484522259 21.684816602
536 30 2 34.3100727976 22.6112937393 21.5238665251
537 30 2 35.0784138797 21.9350813219 21.3631221345
538 30 2 36.0155944232 21.5122641548 21.2351835423
539 30 2 37.0405934097 21.3761250862 21.1696607
540 30 2 38.0643854047 21.533817022 21.1904745303
541 31 1 6.78835160697 49.1162178514 28.2221801311
542 31 1 1.49143106852 48.1115640727 29.4268770455
543 31 2 7.11380503515 49.2108517049 28.6609352882
544 31 2 7.55342937281 49.5411080226 29.5390646737
545 31 2 7.73345868867 50.0330893092 30.4329292441
546 31 2 7.63048143049 50.6294661199 31.2738694293
547 31 2 7.24688133883 51.2633936371 31.9980495753
548 31 2 6.61062017546 51.8646043963 32.5522763936
549 31 2 5.77268908357 52.3658129783 32.8988473875
550 31 2 4.80246088129 52.7088488949 33.0189873334
551 31 2 3.78136691477 52.8499586737 32.9145595926
552 31 2 2.79547480864 52.7637938701 32.6078962709
553 31 2 1.927643632 52.4457215101 32.1397627068
554 31 2 1.24997151581 51.9122463738 31.5656418197
555 31 2 0.817224100913 51.1995066284 30.9506769902
556 31 2 0.661842796246 50.3599799314 30.3637344153
557 31 2 0.79098783114 49.4577002317 29.8711261381
558 31 2 1.18588561955 48.562421247 29.5305658829
559 32 1 19.0618753343 25.1797030685 62.5727387167
560 32 1 20.3244337855 27.8334662478 57.894974485
561 32 2 19.4262680337 25.2470079102 62.9851336814
562 32 2 20.264079826 25.3126756067 63.5911115403
563 32 2 21.2420158598 25.3107545385 63.9332919527
564 32 2 22.2758576721 25.2598719955 63.9783706066
565 32 2 23.2762911379 25.1831179752 63.7201232213
566 32 2 24.1570472136 25.1059405911 63.179972874
567 32 2 24.8427651297 25.0538265451 62.4050373432
568 32 2 25.2758613239 25.049978083 61.4638344495
569 32 2 25.4217780283 25.1131981714 60.4400368391
570 32 2 25.2721331184 25.2561766579 59.4248454461
571 32 2 24.8454841204 25.4843336253 58.5086767706
572 32 2 24.1856367432 25.7953253656 57.7729216569
573 32 2 23.3576521042 26.1792580025 57.2825267352
574 32 2 22.4419165834 26.619589292 57.08007471
575 32 2 21.5268148185 27.0946364036 57.1819030606
576 32 2 20.7006736827 27.5795522525 57.5766149229
577 33 1 37.6203810001 12.2999580015 60.7810845758
578 33 1 33.2096884511 13.3297223066 63.9438946833
579 33 2 37.9803968554 12.7194374347 60.7385736712
580 33 2 38.4607588684 13.6278050401 60.6060193761
581 33 2 38.6530044453 14.630609136 60.4303048501
582 33 2 38.5393091182 15.6436629623 60.2452499154
583 33 2 38.1297341147 16.5818455233 60.0855257473
584 33 2 37.4613093042 17.3668601392 59.9834946896
585 33 2 36.5946580242 17.9343709789 59.9662605132
586 33 2 35.608471425 18.2398670992 60.05319798
587 33 2 34.5923359817 18.2627194983 60.2541868849
588 33 2 33.6385679266 18.0080613939 60.5687115393
589 33 2 32.8337988712 17.5063203448 60.9859077741
590 33 2 32.2510795666 16.8104448595 61.4855531804
591 33 2 31.9432215222 15.9910782815 62.0399103276
592 33 2 31.9379833786 15.1301198376 62.6162549561
593 33 2 32.235540781 14.3132597416 63.1798587061
594 33 2 32.80847037 13.6221687611 63.697154515