LAMMPS input file for bananas

648 atoms

2 atom types

0 67.4746132241 xlo xhi
0 67.4746132241 ylo yhi
0 67.4746132241 zlo zhi

Masses

 1 1
 2 1

Atoms

1 1 1 40.837594823 39.6345149163 39.278785706
2 1 1 41.553506957 38.3757289995 33.9646947434
3 1 2 40.3827850934 39.4200825554 39.512340034
4 1 2 39.4258838391 39.1109653569 39.7603013576
5 1 2 38.4062526966 38.9305934981 39.7375725885
6 1 2 37.4161482204 38.8781454809 39.4381721829
7 1 2 36.5451358118 38.941140426 38.8813353199
8 1 2 35.8719264466 39.0965756195 38.1097607465
9 1 2 35.4572027093 39.3130230527 37.18571908
10 1 2 35.3380879916 39.5534938696 36.1853772677
11 1 2 35.52476295 39.7788096473 35.1918564923
12 1 2 35.9995376083 39.9511732411 34.2876562454
13 1 2 36.718463678 40.0376137346 33.5471350651
14 1 2 37.6153401434 40.012991513 33.0297332647
15 1 2 38.6077470304 39.8622895664 32.7745553558
16 1 2 39.6045574215 39.5819821876 32.79680594
17 1 2 40.5142430506 39.1803563158 33.086403914
18 1 2 41.2532164758 38.6767562392 33.6089012927
19 2 1 8.24736843898 41.0105899523 63.6290399912
20 2 1 8.01783283201 37.1594783158 67.5600560807
21 2 2 7.89643207103 41.434819093 63.6942630966
22 2 2 7.08183209589 42.0563958066 63.8451522635
23 2 2 6.12711021268 42.4088393589 64.0374747511
24 2 2 5.11986959406 42.4626267817 64.27257371
25 2 2 4.15250013537 42.2154555655 64.5478935083
26 2 2 3.31375774905 41.6924535173 64.8572126608
27 2 2 2.68067487181 40.9438885333 65.1912108739
28 2 2 2.31153948611 40.0405870249 65.5383185271
29 2 2 2.2405825702 39.0674785765 65.8857711641
30 2 2 2.47485817918 38.115855197 66.2207728859
31 2 2 2.99360051618 37.275050678 66.5316626088
32 2 2 3.75011659244 36.6242984323 66.8089768928
33 2 2 4.67604197303 36.2255099105 67.0463124687
34 2 2 5.68757172645 36.1176317977 67.2409098525
35 2 2 6.69309866952 36.3130962894 67.3939048536
36 2 2 7.60156273406 36.7966879826 67.510225053
37 3 1 18.6672942385 44.4539479088 7.54586379994
38 3 1 22.5936925523 47.7000124106 5.45227920451
39 3 2 18.8212734892 43.9300442644 7.64176016828
40 3 2 19.1878630124 42.9622997271 7.59955942249
41 3 2 19.6423011514 42.0884084277 7.27940595021
42 3 2 20.1609628417 41.3903618879 6.71689430558
43 3 2 20.7143694826 40.934124585 5.9697083285
44 3 2 21.2698757093 40.7636217423 5.11236365812
45 3 2 21.7946447941 40.896735846 4.22941614324
46 3 2 22.2586414893 41.3236767795 3.40775515641
47 3 2 22.6373695336 42.0078741248 2.7286842233
48 3 2 22.9141043186 42.8893103061 2.26051076382
49 3 2 23.0814172224 43.8899907798 2.0523203391
50 3 2 23.1418526772 44.9210527025 2.12950283911
51 3 2 23.107696262 45.8908641704 2.49143836828
52 3 2 22.9998549563 46.7133758382 3.11155374473
53 3 2 22.8459516118 47.3159637279 3.9397444636
54 3 2 22.6778073198 47.6460484059 4.90694137918
55 4 1 2.27853535139 27.6645663304 44.0945937195
56 4 1 5.51374164662 26.5907329241 39.7682838635
57 4 2 2.54088902388 27.7000670127 44.5817189638
58 4 2 3.12470093681 27.5609091767 45.4258143483
59 4 2 3.79664080371 27.1742243877 46.1125966722
60 4 2 4.51158016866 26.5841446983 46.5745121792
61 4 2 5.2204714663 25.8533402113 46.7645021817
62 4 2 5.87481837111 25.0573071304 46.6602921376
63 4 2 6.43109590505 24.2774867981 46.2664218218
64 4 2 6.85471744083 23.5938428762 45.6138315571
65 4 2 7.12318703592 23.077573206 44.7570422159
66 4 2 7.22814978342 22.7846206134 43.7691860162
67 4 2 7.17615330457 22.7505741037 42.7353410218
68 4 2 6.98805097798 22.9874251677 41.7447768597
69 4 2 6.69710129711 23.4824748399 40.8828184058
70 4 2 6.34593658664 24.1994911218 40.2230690073
71 4 2 5.98267735835 25.0820112801 39.8207020426
72 4 2 5.6565464564 26.0584880382 39.7074322459
73 5 1 40.6438634697 12.7553252258 48.1004696033
74 5 1 41.3718749794 8.65233810988 51.7021540557
75 5 2 40.2643374435 13.1321941123 48.2464510728
76 5 2 39.4203964809 13.6469659748 48.5554362703
77 5 2 38.4719060374 13.8764185781 48.902445856
78 5 2 37.5083180698 13.8010396292 49.2746212364
79 5 2 36.6204605705 13.4291001409 49.6568101283
80 5 2 35.892259219 12.7959005862 50.0329475856
81 5 2 35.3930881317 11.9605535018 50.387520209
82 5 2 35.1714468865 11.0005957858 50.7069800858
83 5 2 35.2505401189 10.0049217409 50.9809795896
84 5 2 35.6261625788 9.06568096857 51.2033144953
85 5 2 36.26708241 8.26987956418 51.3724894516
86 5 2 37.1178877198 7.69145010823 51.4918542721
87 5 2 38.1040369931 7.38451321842 51.5692986229
88 5 2 39.1386530406 7.37844482646 51.6165329334
89 5 2 40.1304412585 7.67519876322 51.6480210712
90 5 2 40.9920105064 8.24912868054 51.6796620594
91 6 1 40.7449976743 8.72130763033 29.4226448234
92 6 1 38.3528372141 10.5377723867 24.8058646631
93 6 2 40.4455081395 8.7870104569 29.8845646311
94 6 2 39.864901323 9.13096000759 30.6702444019
95 6 2 39.2886867301 9.73065708614 31.2875275039
96 6 2 38.7517889491 10.5276255352 31.673895638
97 6 2 38.2855491104 11.4454092645 31.7878768213
98 6 2 37.9148683574 12.3965406993 31.6128252739
99 6 2 37.6559382781 13.2905128501 31.1584385678
100 6 2 37.5147651527 14.0420284043 30.4598737595
101 6 2 37.4866225224 14.5787739915 29.5745430652
102 6 2 37.5564819736 14.848011051 28.5768811315
103 6 2 37.7003828752 14.8213825905 27.5515608271
104 6 2 37.8876162253 14.4974977316 26.5857758915
105 6 2 38.0835235663 13.9020584781 25.7612938236
106 6 2 38.2526558662 13.0855171555 25.1470033348
107 6 2 38.3620044539 12.1184780267 24.7926356149
108 6 2 38.3840095343 11.085262198 24.7242316757
109 7 1 64.5807106048 48.5555512956 37.1575521684
110 7 1 61.8512261706 45.8391495184 41.0955352861
111 7 2 64.652297151 49.0972401298 37.2515166555
112 7 2 64.5546260441 50.1050821384 37.4692621763
113 7 2 64.1678597809 51.0269246761 37.7400323082
114 7 2 63.5306217413 51.7789769671 38.0579054018
115 7 2 62.7043640903 52.292923452 38.4126666961
116 7 2 61.7677668346 52.5221502834 38.7907393232
117 7 2 60.8095666792 52.4459938581 39.1764217473
118 7 2 59.9204692856 52.0716241632 39.5533188516
119 7 2 59.184882072 51.4333912806 39.9058362409
120 7 2 58.6732210563 50.5896946126 40.2206015641
121 7 2 58.435492919 49.6176601771 40.487683312
122 7 2 58.4967372363 48.6061110995 40.7014960062
123 7 2 58.8547442955 47.6474719938 40.8613092776
124 7 2 59.4802564942 46.829345093 40.971314434
125 7 2 60.3196349709 46.2265259058 41.0402424517
126 7 2 61.2997484188 45.8941861191 41.0805682063
127 8 1 60.7330338484 65.3388010348 48.0824698803
128 8 1 65.8430286359 63.6233122616 46.9503539553
129 8 2 60.650341773 65.5033069287 48.6054235907
130 8 2 60.596615896 65.6045935884 49.634769409
131 8 2 60.6915446037 65.4383850657 50.6526404905
132 8 2 60.9428620265 65.0287713752 51.5701122605
133 8 2 61.344048536 64.4220272437 52.307410853
134 8 2 61.8749249638 63.6823944862 52.8011839523
135 8 2 62.5034917947 62.8862268049 53.0102749215
136 8 2 63.1888457031 62.1150306726 52.9194739479
137 8 2 63.8849076106 61.4480365766 52.5409043137
138 8 2 64.544622478 60.9549777032 51.9129174411
139 8 2 65.1242480497 60.6897342354 51.0965974239
140 8 2 65.5873416603 60.6854225441 50.1701936305
141 8 2 65.9080817336 60.9513768578 49.2219888112
142 8 2 66.0736212425 61.4722985113 48.3422527298
143 8 2 66.0852586271 62.2096503149 47.6150146944
144 8 2 65.9583194511 63.1051689543 47.1104048616
145 9 1 44.3327403099 28.2379701343 15.9495430548
146 9 1 45.3438280287 23.6702588411 18.8564916429
147 9 2 44.5680578302 28.2546626884 15.4478182548
148 9 2 45.2021227175 28.2273925119 14.6293340905
149 9 2 46.0356356904 28.1113360887 14.0256079093
150 9 2 46.9907443947 27.8989901693 13.6859391816
151 9 2 47.9785138591 27.5916276314 13.6355603511
152 9 2 48.907032308 27.1991814662 13.8733370711
153 9 2 49.6897882895 26.7393394541 14.3718715918
154 9 2 50.2535556014 26.2359320449 15.0799998778
155 9 2 50.5450673572 25.7167603756 15.927454859
156 9 2 50.5358708978 25.2110623876 16.8312707922
157 9 2 50.224921056 24.7468479883 17.7033450198
158 9 2 49.638675417 24.3483461408 18.4584679233
159 9 2 48.82868289 24.0337965593 19.0220891952
160 9 2 47.8668853793 23.8137872848 19.3371125889
161 9 2 46.8390607726 23.6902896573 19.3690998502
162 9 2 45.8370048746 23.6564786419 19.1094095276
163 10 1 42.5593029348 27.0628634202 14.2985516069
164 10 1 42.1560553174 32.4387401493 13.1698462955
165 10 2 42.8718359604 26.7709923332 13.945684595
166 10 2 43.3235312384 26.3320832614 13.1234750878
167 10 2 43.579730534 26.0764701429 12.1530514042
168 10 2 43.6312605905 26.0396737318 11.1192772759
169 10 2 43.4876023491 26.2372711395 10.1127903931
170 10 2 43.1760268261 26.6634760879 9.22174140087
171 10 2 42.7391095467 27.2916662889 8.52375957201
172 10 2 42.2308500781 28.0768098836 8.07887743097
173 10 2 41.7117503386 28.9595697871 7.92405920099
174 10 2 41.243300263 29.8717118573 8.06983176849
175 10 2 40.8823734166 30.7423239693 8.49932522962
176 10 2 40.6760433593 31.5042791687 9.16981046627
177 10 2 40.6572932137 32.1003538342 10.0165936123
178 10 2 40.8420094798 32.4884432174 10.9589124557
179 10 2 41.2275340888 32.6453990029 11.9072973609
180 10 2 41.7929066682 32.5691391177 12.7717258122
181 11 1 61.7291693455 54.876327698 1.66496540029
182 11 1 66.3267305203 54.2660671917 4.63593296752
183 11 2 61.3961927822 55.2883939746 1.82839349955
184 11 2 60.8000826634 55.9591638112 2.34551903911
185 11 2 60.2960453072 56.4591731487 3.09959813119
186 11 2 59.94263663 56.7563064748 4.02669702798
187 11 2 59.7846837765 56.8369390348 5.04711241273
188 11 2 59.8491994334 56.7071786344 6.07263581059
189 11 2 60.1429198078 56.392308955 7.01459318636
190 11 2 60.6516906683 55.9344851199 7.79192697477
191 11 2 61.341757406 55.3888915434 8.33858392191
192 11 2 62.162841536 54.8187122502 8.60953538638
193 11 2 63.0527232362 54.2893720842 8.58488139125
194 11 2 63.9429122576 53.8625736831 8.27166437056
195 11 2 64.7648903412 53.5906737057 7.70322729969
196 11 2 65.456356187 53.5119108814 6.93617471179
197 11 2 65.9669037911 53.6469208124 6.04521358265
198 11 2 66.2626166065 53.9968551798 5.11634430206
199 12 1 50.4589201668 65.2845702749 27.8078279846
200 12 1 53.4029962861 66.6499922756 23.3575837789
201 12 2 50.6657604094 64.8667518328 28.1078706734
202 12 2 51.0626339499 63.9773079695 28.4601195598
203 12 2 51.4570032081 63.021106428 28.5135028098
204 12 2 51.8316363661 62.0887954845 28.2622169713
205 12 2 52.1711004161 61.2688459508 27.7282270913
206 12 2 52.4631677735 60.6394876666 26.9592647515
207 12 2 52.6999307371 60.2615793861 26.0244776626
208 12 2 52.8785222222 60.1730619193 25.008127324
209 12 2 53.0013770753 60.385500088 24.0019091665
210 12 2 53.0760101552 60.8830286709 23.0965951416
211 12 2 53.1143314042 61.6237984103 22.3737604812
212 12 2 53.1315603394 62.5437902845 21.8983486742
213 12 2 53.1448388975 63.5626504033 21.7127523128
214 12 2 53.171669065 64.5910137135 21.8329492981
215 12 2 53.2283176923 65.5386490116 22.2470465646
216 12 2 53.3283338814 66.3226828984 22.9163640507
217 13 1 48.8802480791 10.7014063142 30.1159543306
218 13 1 44.2836279823 10.4179164043 33.1371051184
219 13 2 49.3334055886 10.4911972058 30.35645621
220 13 2 50.1143252736 10.2341784924 30.9863800925
221 13 2 50.7415405422 10.1606854229 31.8072930273
222 13 2 51.1507636043 10.2621587911 32.7533046087
223 13 2 51.297575165 10.5140923995 33.7471225466
224 13 2 51.1614729385 10.8782666313 34.7070973295
225 13 2 50.7477402909 11.3062319065 35.5546640175
226 13 2 50.0869646978 11.7437245288 36.2215028977
227 13 2 49.2322499058 12.1356124495 36.655766358
228 13 2 48.2543758893 12.4309201758 36.826804441
229 13 2 47.2353477421 12.5874748375 36.727958378
230 13 2 46.2609214746 12.5757499548 36.3771674896
231 13 2 45.4127879416 12.3815565749 35.8153341402
232 13 2 44.7611272813 12.0073364971 35.1025957672
233 13 2 44.3582124764 11.4719397203 34.3128437666
234 13 2 44.2336450303 10.8089063942 33.5269887984
235 14 1 50.6318179889 17.560680324 59.0056559362
236 14 1 51.7155261928 16.9296250789 53.6424497372
237 14 2 50.2250393557 17.239803642 59.2030136069
238 14 2 49.3459250301 16.7240239653 59.3869364134
239 14 2 48.3855174038 16.3442723627 59.3088071447
240 14 2 47.4344084596 16.1188681758 58.9663410881
241 14 2 46.5823426694 16.0520630377 58.3813460165
242 14 2 45.9100374004 16.1336533656 57.59773456
243 14 2 45.481826081 16.3399103473 56.6775218702
244 14 2 45.3397946495 16.6357426598 55.6951733646
245 14 2 45.4999457095 16.9778948029 54.7308177144
246 14 2 45.9507400023 17.3188895415 53.8629436654
247 14 2 46.6541481311 17.6113551298 53.1612463268
248 14 2 47.5491166803 17.8123429214 52.6802749401
249 14 2 48.5571328147 17.8872418439 52.4544610895
250 14 2 49.5893801874 17.8129329609 52.4949804994
251 14 2 50.5548339399 17.5798966045 52.7887344431
252 14 2 51.3685569943 17.1930800275 53.2995436028
253 15 1 45.21493802 31.3803026225 67.2697371666
254 15 1 43.1417842179 36.3714095107 66.2078895924
255 15 2 45.7394194816 31.3765596165 67.4494200483
256 15 2 46.75609158 31.5071281152 67.5978383173
257 15 2 47.7391989438 31.8183761484 67.5012834407
258 15 2 48.5994386901 32.2972919624 67.1798406107
259 15 2 49.2587064771 32.9155820348 66.6740920146
260 15 2 49.6572151792 33.6322498351 66.0414180468
261 15 2 49.7589440735 34.3973323773 65.3507674791
262 15 2 49.5549218818 35.1564540038 64.6763732527
263 15 2 49.0640444412 35.8557823535 64.090986655
264 15 2 48.3313524781 36.4469348124 63.6592465381
265 15 2 47.4239264545 36.8913882575 63.4317879309
266 15 2 46.4247726443 37.1639901751 63.4406270031
267 15 2 45.4252576801 37.2552511398 63.6962430113
268 15 2 44.5167811111 37.172209711 64.1866231861
269 15 2 43.7824449612 36.937790916 64.8783576139
270 15 2 43.2894795488 36.5887167914 65.7196843214
271 16 1 25.1027752402 38.8016675034 26.6071542589
272 16 1 23.0045250781 34.8197224603 29.7817557863
273 16 2 25.0735233502 39.3126557445 26.8202647842
274 16 2 24.7931650635 40.2107940303 27.2532141136
275 16 2 24.2459577858 40.9609332653 27.7120753067
276 16 2 23.4853993205 41.4913942909 28.1734430476
277 16 2 22.5844329691 41.750520111 28.6136835659
278 16 2 21.6287992491 41.7113840735 29.0110886928
279 16 2 20.709221234 41.3742440493 29.3478544116
280 16 2 19.913135767 40.7665189298 29.611703572
281 16 2 19.316724192 39.9402895827 29.7970048678
282 16 2 18.977968947 38.9675520377 29.9052860925
283 16 2 18.9313688616 37.9336555425 29.9450948909
284 16 2 19.1847948261 36.9295235638 29.9312196998
285 16 2 19.718772413 36.0433667365 29.8833418838
286 16 2 20.4882568381 35.3526430695 29.8242419136
287 16 2 21.4267384835 34.916998179 29.7777230823
288 16 2 22.4523047933 34.7728289994 29.7664419984
289 17 1 12.0762368455 45.7212409342 60.3393556712
290 17 1 13.1438383421 46.62360082 65.6668887408
291 17 2 11.6180344388 45.9664594784 60.1462257365
292 17 2 10.6620234303 46.3257647011 59.9740601776
293 17 2 9.65355740435 46.5423747878 60.0677330979
294 17 2 8.68504010714 46.6132942926 60.4277927317
295 17 2 7.84523423209 46.5488064677 61.030507991
296 17 2 7.21117130896 46.3715360145 61.8300313909
297 17 2 6.84113080805 46.1143869982 62.7625777341
298 17 2 6.76932836602 45.8175438671 63.7522376938
299 17 2 7.00279726524 45.524808916 64.7178964289
300 17 2 7.52074739828 45.2796100072 65.5806266451
301 17 2 8.27646014369 45.1210424188 66.270882277
302 17 2 9.20154644803 45.0803055778 66.7348371352
303 17 2 10.2121800192 45.1778594466 66.939290794
304 17 2 11.2167375182 45.4215597375 66.8746945832
305 17 2 12.1241493985 45.8059419183 66.5560218832
306 17 2 12.8522002705 46.3127192672 66.0214034048
307 18 1 56.8469708696 39.196135911 30.9948369889
308 18 1 55.9271036828 37.4962090359 36.1524263391
309 18 2 56.9012826231 39.7445051723 30.9338276596
310 18 2 56.802481888 40.775451347 30.9431373738
311 18 2 56.4604079045 41.7360442352 31.1246448504
312 18 2 55.9159990145 42.5433920087 31.4775000676
313 18 2 55.2286349996 43.1285700808 31.9852358315
314 18 2 54.4707250206 43.44290311 32.6172686484
315 18 2 53.7211080195 43.4624014233 33.3316862003
316 18 2 53.0578670902 43.1899475109 34.0790673657
317 18 2 52.5512127397 42.6550333065 34.8069866154
318 18 2 52.257083682 41.9110722 35.4647922406
319 18 2 52.2120484079 41.0305307732 36.0082229086
320 18 2 52.4299722175 40.0983239678 36.4034417798
321 18 2 52.9007534932 39.2040756703 36.630120504
322 18 2 53.5912443932 38.4339501097 36.6832920095
323 18 2 54.4482720496 37.8627985783 36.5738032183
324 18 2 55.4034849112 37.5473372501 36.3273264231
325 19 1 38.4872122218 22.1778446719 47.6600176513
326 19 1 35.5677609593 25.4628828749 44.3400834264
327 19 2 38.9735548166 22.3846551031 47.8275917473
328 19 2 39.9129344092 22.8127636575 47.9111819246
329 19 2 40.813188587 23.2760957653 47.693090099
330 19 2 41.5879023322 23.7507762574 47.1959026953
331 19 2 42.1621027771 24.2118956372 46.4676437869
332 19 2 42.4790924663 24.6357804105 45.5773980304
333 19 2 42.5056169413 25.0021507624 44.6090140732
334 19 2 42.2348956566 25.2959689229 43.6534623239
335 19 2 41.6872399796 25.508809757 42.8005436232
336 19 2 40.9082019489 25.6396286578 42.1307045134
337 19 2 39.9644225183 25.6948567551 41.707705087
338 19 2 38.9375576907 25.6878147625 41.5728076919
339 19 2 37.9168361332 25.637498885 41.7410161509
340 19 2 36.9909265962 25.5668494458 42.1997082666
341 19 2 36.2398563641 25.5006600327 42.9097862477
342 19 2 35.7277173177 25.4633177328 43.8092402047
343 20 1 28.2356378978 12.8677051969 8.74765469986
344 20 1 31.0484013575 17.1187544103 10.8341774608
345 20 2 27.7108351011 12.9786875269 8.60749158551
346 20 2 26.7199886286 13.2768318956 8.56241970517
347 20 2 25.7964637194 13.6835101328 8.79568527153
348 20 2 25.0260242503 14.1792180083 9.27879498771
349 20 2 24.4804814103 14.7363368507 9.96048397556
350 20 2 24.2111486021 15.3216508002 10.7713882178
351 20 2 24.2441645779 15.8993742061 11.6303666125
352 20 2 24.5781110713 16.4344132439 12.4518964286
353 20 2 25.1841420623 16.8955644764 13.153868116
354 20 2 26.0086128943 17.2583588333 13.6650690284
355 20 2 26.977969617 17.5072917994 13.9316739676
356 20 2 28.0054529244 17.6372365444 13.9221509817
357 20 2 28.999005671 17.6539111985 13.6301352856
358 20 2 29.8696632491 17.5733576844 13.0750093682
359 20 2 30.539662103 17.4204796054 12.300136411
360 20 2 30.9495273442 17.2267724531 11.3689080318
361 21 1 54.6239672338 40.0513164943 13.3363440109
362 21 1 58.9507318633 38.9916691697 10.0970708957
363 21 2 54.158862542 39.780042875 13.2041736635
364 21 2 53.335432198 39.3551410729 12.7414435064
365 21 2 52.6427038016 39.056014793 12.0319725003
366 21 2 52.1506326635 38.8928705235 11.1353409074
367 21 2 51.9108855612 38.8635209244 10.1281873942
368 21 2 51.9521316661 38.9535841892 9.09722394273
369 21 2 52.2774295454 39.1377948471 8.13133264746
370 21 2 52.8639483946 39.3823065382 7.313464722
371 21 2 53.6650489087 39.6477768769 6.71308006469
372 21 2 54.6145341351 39.8929532403 6.37981646503
373 21 2 55.6326828719 40.0784326624 6.33896545956
374 21 2 56.6335157094 40.1702531441 6.58916718165
375 21 2 57.5326314629 40.1429890566 7.10253430406
376 21 2 58.2548997629 39.982068513 7.82719377758
377 21 2 58.7413086726 39.6851014961 8.69201470386
378 21 2 58.9543432216 39.262097692 9.61309142906
379 22 1 22.317739011 62.0292633519 7.67807352818
380 22 1 20.2190621487 58.6836579361 3.83891805375
381 22 2 21.9434222534 62.3032955745 7.98167533583
382 22 2 21.1541513734 62.8709644569 8.33874926208
383 22 2 20.3002050403 63.4541397424 8.39689148215
384 22 2 19.4458712598 63.986447901 8.15304709158
385 22 2 18.6554733504 64.4061515927 7.63168519504
386 22 2 17.9875073146 64.6617766025 6.88256871517
387 22 2 17.4893103288 64.7168033626 5.97621884336
388 22 2 17.1927462846 64.5529954599 4.9974875167
389 22 2 17.1113016132 64.1720617609 4.03782374559
390 22 2 17.2388560902 63.5955006596 3.18693866351
391 22 2 17.5502406513 62.8626406464 2.52462897222
392 22 2 18.0035313807 62.0270557859 2.11350401948
393 22 2 18.5438705883 61.1516828086 1.99327938632
394 22 2 19.1084667117 60.3030848586 2.17715708406
395 22 2 19.6323173373 59.5453847201 2.65062228151
396 22 2 20.0541337241 58.9344204648 3.37276623234
397 23 1 35.8803763813 20.2995036842 4.72862515913
398 23 1 32.2142572385 22.4009272173 1.19588903929
399 23 2 36.0492721825 20.6463888305 5.12677796306
400 23 2 36.4018810796 21.4407395516 5.69013590317
401 23 2 36.7606285825 22.3687091239 5.97800909262
402 23 2 37.0766753296 23.3549739169 5.96828886748
403 23 2 37.3050738405 24.3188970906 5.66599016322
404 23 2 37.4088651704 25.1818780902 5.10279443774
405 23 2 37.362447465 25.8745165482 4.33416212369
406 23 2 37.1539093935 26.3429376518 3.43427779027
407 23 2 36.7861157851 26.5537024627 2.48928872836
408 23 2 36.2764465191 26.4968556474 1.58945321561
409 23 2 35.6552124686 26.1868328371 0.820914093234
410 23 2 34.9628928716 25.6611449193 0.257847436653
411 23 2 34.2464459265 24.9769591773 -0.0442980852329
412 23 2 33.5550288739 24.2058888845 -0.0538549760494
413 23 2 32.9355176515 23.4274662455 0.234176812876
414 23 2 32.4282344734 22.7218935806 0.797674162358
415 24 1 53.7097267222 44.1168759387 37.7560544094
416 24 1 49.2309676799 42.0652859844 40.2194526774
417 24 2 53.8386998349 44.6372123775 37.8974640215
418 24 2 53.8532393525 45.6502429014 38.1125361748
419 24 2 53.5698808889 46.6350950144 38.2624447057
420 24 2 53.0103741989 47.5020462508 38.3521446985
421 24 2 52.2216380548 48.1721200012 38.392078833
422 24 2 51.2714839221 48.5842836896 38.3972256056
423 24 2 50.2424354093 48.7010114736 38.3857341426
424 24 2 49.2242068065 48.511704468 38.3772700309
425 24 2 48.3055262434 48.0336567606 38.3912229355
426 24 2 47.5660487283 47.3104791744 38.4449393638
427 24 2 47.0690961404 46.4081244404 38.5521416509
428 24 2 46.8558858745 45.4088760578 38.7216772623
429 24 2 46.9417741581 44.4038487179 38.9567124085
430 24 2 47.3148564365 43.4846838243 39.2544434664
431 24 2 47.9370523916 42.7351970071 39.6063525106
432 24 2 48.7475767015 42.2237389032 39.9989836634
433 25 1 44.1405806597 40.748237554 23.4748527542
434 25 1 46.4970928827 37.9361156235 27.5828273546
435 25 2 43.8202070304 41.1721350997 23.6331321277
436 25 2 43.1253525135 41.8031851542 24.0709120953
437 25 2 42.3697761235 42.1811309123 24.6700444629
438 25 2 41.6322353889 42.2785289451 25.3906314175
439 25 2 40.9898440119 42.0935058256 26.1817053933
440 25 2 40.5110434832 41.6499288783 26.9858744157
441 25 2 40.2493651091 40.9952308366 27.7445529865
442 25 2 40.2385510003 40.1960866742 28.4033017503
443 25 2 40.4894787094 39.3323366382 28.9167892683
444 25 2 40.9891698172 38.4897093582 29.2529236685
445 25 2 41.701972826 37.7520082696 29.3957775996
446 25 2 42.5728125494 37.1934735046 29.3470398998
447 25 2 43.5322098383 36.8720154134 29.125861671
448 25 2 44.5026141282 36.823936433 28.767110787
449 25 2 45.4054716424 37.0606223685 28.318193926
450 25 2 46.1683850293 37.5675046556 27.8347357766
451 26 1 26.7548499288 44.208245519 16.8085828911
452 26 1 29.9547963385 47.2738208059 13.5376157462
453 26 2 26.8302905814 44.2865517832 17.3522349752
454 26 2 27.198045322 44.4020246006 18.3135469694
455 26 2 27.8324902547 44.4841982031 19.128056268
456 26 2 28.6785991911 44.5444181424 19.7223386065
457 26 2 29.6620542198 44.5960308957 20.043041898
458 26 2 30.6960192752 44.6531674264 20.06174891
459 26 2 31.6890546486 44.7294552435 19.7775673004
460 26 2 32.5534510915 44.8367763474 19.2172109484
461 26 2 33.2132239118 44.9841842672 18.4325651673
462 26 2 33.6110384578 45.1770788937 17.4959577142
463 26 2 33.7134357783 45.4167143161 16.4935666108
464 26 2 33.5138821771 45.7000845206 15.5175656074
465 26 2 33.0333647141 46.0201973678 14.6577231778
466 26 2 32.3184783787 46.3667118784 13.9932207379
467 26 2 31.4371792766 46.7268807424 13.5854358031
468 26 2 30.4725908959 47.0867121493 13.4723478481
469 27 1 4.38029663373 10.0152496228 43.3547434694
470 27 1 1.90599743769 5.28562905602 41.9963739652
471 27 2 4.86025029289 9.96022393377 43.6267681194
472 27 2 5.63183940043 9.71250559592 44.2717364484
473 27 2 6.18604035718 9.2842384381 45.0347219083
474 27 2 6.48004685225 8.69941667519 45.8373687532
475 27 2 6.494767516 7.99630340097 46.5977063735
476 27 2 6.23656596748 7.22394316946 47.2376203553
477 27 2 5.73668081424 6.43769192005 47.6899720741
478 27 2 5.04837846738 5.6941716632 47.9047179193
479 27 2 4.24209827337 5.04610977236 47.8534704269
480 27 2 3.39903245061 4.53753324537 47.5320856019
481 27 2 2.60372597534 4.19975594552 46.9610406149
482 27 2 1.93637088671 4.04852455752 46.1835674488
483 27 2 1.46549733224 4.08258338522 45.2617125995
484 27 2 1.2417275147 4.28378879968 44.2706819638
485 27 2 1.29316182543 4.61876290655 43.2919863367
486 27 2 1.62281768627 5.04193571228 42.406012262
487 28 1 23.3034489096 42.0323692919 30.4189753246
488 28 1 20.7002056012 38.3002299139 33.5223436346
489 28 2 23.2532515525 42.557274322 30.5902519615
490 28 2 22.9301158125 43.4858326426 30.9159220551
491 28 2 22.3365297746 44.2707510423 31.2388105691
492 28 2 21.5274823942 44.8384517135 31.5484176673
493 28 2 20.5776004509 45.1351547551 31.8354540238
494 28 2 19.5743468291 45.1317798422 32.0926874806
495 28 2 18.6100488757 44.8265966978 32.3156022102
496 28 2 17.7734833958 44.2453827962 32.5028103015
497 28 2 17.141785255 43.4390739226 32.6561782587
498 28 2 16.7734170655 42.4791217256 32.7806568822
499 28 2 16.7028407202 41.4509813896 32.8838300371
500 28 2 16.9373764267 40.4463229799 32.9752234361
501 28 2 17.4565355213 39.5546763457 33.0654364355
502 28 2 18.2138878695 38.8552710872 33.1651759773
503 28 2 19.1412936552 38.4098153218 33.2842807242
504 28 2 20.1551138572 38.2568714111 33.4308243334
505 29 1 34.2436568425 8.58206717956 54.8734999759
506 29 1 30.7133466502 7.68754319761 59.0054936496
507 29 2 34.13583844 9.02952193413 54.56440422
508 29 2 33.7178904089 9.77388516689 53.9779393087
509 29 2 33.048030531 10.3504282959 53.4379540909
510 29 2 32.1814498478 10.719054721 53.006849986
511 29 2 31.1912691535 10.8586180244 52.7371046467
512 29 2 30.1618745359 10.7688493211 52.6664889803
513 29 2 29.1812261632 10.4703817664 52.8146245899
514 29 2 28.3328413172 10.0028699848 53.1811953994
515 29 2 27.6881823666 9.42137582329 53.7459764619
516 29 2 27.3001434609 8.79134984126 54.4706773248
517 29 2 27.1982295925 8.18266594079 55.3024319424
518 29 2 27.3858674179 7.66325283956 56.1786170529
519 29 2 27.8400929422 7.29290283393 57.0325598598
520 29 2 28.5136445293 7.11782214111 57.7996148002
521 29 2 29.3392704763 7.16641951923 58.4230555444
522 29 2 30.2358585451 7.4467170038 58.8592452121
523 30 1 41.5732021823 30.2108132568 32.5017237019
524 30 1 36.9630968547 27.6325671427 34.0625602627
525 30 2 41.5951343294 30.7504397196 32.6270353662
526 30 2 41.4237678277 31.7631902704 32.7599568282
527 30 2 40.9841317859 32.7009461967 32.7656352634
528 30 2 40.3080637582 33.478524086 32.6607404639
529 30 2 39.4489504532 34.025339656 32.4720202138
530 30 2 38.4768619018 34.2918410274 32.2338624127
531 30 2 37.4721650537 34.2540250383 31.9851608535
532 30 2 36.5181988816 33.9156249679 31.7657703209
533 30 2 35.6936786046 33.3077702734 31.6128741
534 30 2 35.0655213362 32.4861493537 31.5575949756
535 30 2 34.6827470479 31.5259339335 31.6221586034
536 30 2 34.5720107348 30.5149276759 31.8178677938
537 30 2 34.7351729959 29.5455634808 32.1440723383
538 30 2 35.1491304527 28.7064788594 32.5882282716
539 30 2 35.7679214646 28.0744372331 33.1270411681
540 30 2 36.5269152162 27.7073314737 33.7285892688
541 31 1 25.0347871514 47.4058690564 22.1337444644
542 31 1 27.0743900167 45.0593895022 26.6802473821
543 31 2 24.709385052 47.8460539991 22.2216730808
544 31 2 23.9938548353 48.5247535023 22.5380301011
545 31 2 23.2038546303 48.970147591 23.0382521048
546 31 2 22.4203404161 49.1502003576 23.6912335352
547 31 2 21.723677018 49.057059937 24.4519458612
548 31 2 21.1863134051 48.7077741498 25.2655416193
549 31 2 20.8661794632 48.142736711 26.0723533835
550 31 2 20.8014060827 47.422005619 26.8133320426
551 31 2 21.0068497899 46.6198292815 27.4354287215
552 31 2 21.472738676 45.8178792818 27.8964298223
553 31 2 22.1655630399 45.0978065743 28.1688045049
554 31 2 23.0311295676 44.5337995593 28.2422139338
555 31 2 23.9995006811 44.1858223193 28.1244535921
556 31 2 24.9913688693 44.094149304 27.8407427771
557 31 2 25.9252850239 44.2756945903 27.4314260339
558 31 2 26.7250819671 44.7224702799 26.9482960265
559 32 1 52.6456934968 45.96973241 18.139163166
560 32 1 51.5227481215 42.6262529342 22.3696210142
561 32 2 52.7544322305 46.4955952289 18.2770940731
562 32 2 52.7579960828 47.4587753862 18.6578427496
563 32 2 52.511209971 48.3179015434 19.1810034629
564 32 2 52.0466198343 48.9924315383 19.8149305581
565 32 2 51.4166229557 49.4186478832 20.5178827837
566 32 2 50.6886923085 49.5554651769 21.2418277209
567 32 2 49.9392268577 49.388174758 21.9368196093
568 32 2 49.2465883179 48.9297852978 22.5555515602
569 32 2 48.6839590204 48.2198371496 23.0576672554
570 32 2 48.3126718455 47.3207985161 23.4134391491
571 32 2 48.1766201507 46.3123719016 23.6064779293
572 32 2 48.2982571925 45.2842297749 23.6352262919
573 32 2 48.6765496656 44.3278415383 23.5131008777
574 32 2 49.287071882 43.5281367192 23.2672694381
575 32 2 50.0842320047 42.9557642257 22.9361746803
576 32 2 51.005427431 42.660653183 22.5660304787
577 33 1 60.2572185499 31.3275850523 52.8683248009
578 33 1 56.5822653577 33.2757417559 56.4788703857
579 33 2 60.7277014812 31.6185100345 52.8310525902
580 33 2 61.4602864018 32.3446985085 52.7379510033
581 33 2 61.9470349372 33.2533436727 52.6372628717
582 33 2 62.1465817821 34.2664255903 52.5563656774
583 33 2 62.043738096 35.2964056303 52.5208330939
584 33 2 61.650875862 36.2542050138 52.5521041216
585 33 2 61.0068002657 37.0573237339 52.6655290698
586 33 2 60.1732128682 37.6373598655 52.868970481
587 33 2 59.2290879318 37.946243932 53.1620865144
588 33 2 58.263474458 37.9606201087 53.5363621024
589 33 2 57.3673799807 37.6839749457 53.97588504
590 33 2 56.6254758543 37.1463195929 54.4587962739
591 33 2 56.1083800396 36.4014544896 54.9592822052
592 33 2 55.8662207612 35.5220658231 55.4499274214
593 33 2 55.9240676635 34.5931006812 55.9042134242
594 33 2 56.2796468841 33.7040247078 56.2989356079