LAMMPS input file for bananas

648 atoms

2 atom types

0 33.7373066121 xlo xhi
0 33.7373066121 ylo yhi
0 33.7373066121 zlo zhi

Masses

 1 1
 2 1

Atoms

1 1 1 32.2306460864 15.1311936719 2.71159779584
2 1 1 29.2732934666 11.7664709959 5.91617916048
3 1 2 32.2050699002 15.6681799507 2.84714242598
4 1 2 31.9251598625 16.6331545283 3.09848423819
5 1 2 31.3669439365 17.4705100813 3.34328809615
6 1 2 30.5812404583 18.1030810883 3.5782822163
7 1 2 29.6396016945 18.4723667349 3.80108890545
8 1 2 28.627792344 18.5438628625 4.01044127118
9 1 2 27.6379726735 18.3102067853 4.20629869039
10 1 2 26.7602987413 17.7918483488 4.38985051186
11 1 2 26.0747052904 17.0351860667 4.56340765521
12 1 2 25.6436202449 16.1083382144 4.73019198647
13 1 2 25.5062748326 15.094934315 4.89404266702
14 1 2 25.6751279277 14.0864928821 5.05906624043
15 1 2 26.1347305099 13.1740801344 5.22926234911
16 1 2 26.8431337364 12.4400099344 5.40815919434
17 1 2 27.7357122915 11.9503414439 5.59849196492
18 1 2 28.731054541 11.7488582849 5.80195354345
19 2 1 18.4257883471 21.4084346073 27.0111621166
20 2 1 13.0125987646 20.7968938361 26.1987389781
21 2 2 18.58983266 21.9256419796 27.1250337512
22 2 2 18.7694172317 22.9454282108 27.1470268242
23 2 2 18.7582595058 23.9579868675 26.9295440824
24 2 2 18.543180284 24.8771985104 26.5035286426
25 2 2 18.129586414 25.6254516405 25.9189299468
26 2 2 17.5409779925 26.1407164551 25.240151214
27 2 2 16.816806493 26.3821984392 24.5401795276
28 2 2 16.0088790339 26.3340565055 23.8939335635
29 2 2 15.1766365151 26.0068468014 23.3714352664
30 2 2 14.3817359875 25.436560588 23.0314278294
31 2 2 13.6824310356 24.6813438839 22.9160216551
32 2 2 13.1282623625 23.8161978537 23.0468562808
33 2 2 12.7555424946 22.9261429666 23.4231280831
34 2 2 12.5840461437 22.0984699635 24.0216635228
35 2 2 12.6152078776 21.4147839039 24.7990312539
36 2 2 12.8319913692 20.9435664248 25.6955005931
37 3 1 6.3818946971 15.3803290626 19.7382435815
38 3 1 3.51140228815 17.7517513192 15.6795165966
39 3 2 6.66033438076 15.7306687379 20.0655266487
40 3 2 7.25888596309 16.4714338276 20.4725909635
41 3 2 7.90061770476 17.2767863112 20.5834332837
42 3 2 8.51478057388 18.0878515212 20.3893315931
43 3 2 9.03313825225 18.8452341144 19.9093574313
44 3 2 9.39618640799 19.4944315496 19.1886376537
45 3 2 9.55857610737 19.9908016214 18.2942414281
46 3 2 9.49324705922 20.3036312907 17.3090673396
47 3 2 9.19389397496 20.4189359677 16.3242877534
48 3 2 8.67554125239 20.3407341113 15.4310390782
49 3 2 7.97317360487 20.0906809743 14.7121153079
50 3 2 7.13854744454 19.7060948755 14.2344219165
51 3 2 6.23547364019 19.2365558908 14.0428778828
52 3 2 5.3340015941 18.7393869692 14.1563216336
53 3 2 4.50403471926 18.2744293389 14.5657940501
54 3 2 3.80895922254 17.89858839 15.2353550302
55 4 1 9.33381796875 13.0393124712 19.7138124133
56 4 1 8.15579256787 14.1760898239 24.9727693756
57 4 2 9.63900592922 13.4216547447 19.4529380252
58 4 2 10.0478944319 14.2842888067 19.0512280073
59 4 2 10.2252903359 15.2743641006 18.8042869684
60 4 2 10.1671245944 16.3069278763 18.7483667865
61 4 2 9.89079798964 17.2931548498 18.9023090983
62 4 2 9.43359517091 18.148443019 19.2658280129
63 4 2 8.84928641417 18.8001245561 19.8195361691
64 4 2 8.20322683022 19.1940889817 20.52671176
65 4 2 7.5663996944 19.2997149645 21.3366454745
66 4 2 7.00894680767 19.112661245 22.189262303
67 4 2 6.59377555242 18.6552623123 23.0205969626
68 4 2 6.37082531581 17.9744927678 23.7686238942
69 4 2 6.37251585704 17.1376859131 24.3789104671
70 4 2 6.61079246857 16.2263967804 24.8095781396
71 4 2 7.07603724462 15.3289689513 25.0351194017
72 4 2 7.73794568732 14.5324826442 25.0487226091
73 5 1 20.3166259818 9.29408046418 21.1066820509
74 5 1 16.771786349 5.97430446429 23.7047263566
75 5 2 20.2166071437 9.83638090396 21.1640163046
76 5 2 19.8116604986 10.7886671152 21.2072303946
77 5 2 19.1519117825 11.5865787393 21.1795366629
78 5 2 18.2918509881 12.1583528707 21.1016390132
79 5 2 17.3042251809 12.4528374857 20.998817092
80 5 2 16.2734081024 12.444153599 20.8986222221
81 5 2 15.2877100827 12.1340539557 20.8283662889
82 5 2 14.4313291587 11.5517632805 20.8126324487
83 5 2 13.7766770009 10.7513146446 20.8710345431
84 5 2 13.3777790856 9.80662472153 21.0164294313
85 5 2 13.2653506437 8.80475678916 21.2537451759
86 5 2 13.4439971773 7.83798550898 21.5795318836
87 5 2 13.8917947004 6.99538672322 21.9822761394
88 5 2 14.5622879595 6.35471880259 22.4434503756
89 5 2 15.3887245116 5.9753355039 22.939201532
90 5 2 16.2901387517 5.89277628207 23.4425250996
91 6 1 29.486326212 28.3977771059 18.9233896914
92 6 1 25.0702305331 25.1340254563 19.3507759936
93 6 2 29.5205729737 28.7987175796 19.3047748608
94 6 2 29.3627200963 29.5915057444 19.9522836762
95 6 2 28.9247839577 30.3698345202 20.4767972856
96 6 2 28.2403050644 31.0538069185 20.8460785794
97 6 2 27.3652946042 31.5721258877 21.0420388095
98 6 2 26.3731294111 31.8685925505 21.0623862541
99 6 2 25.3478641697 31.9072283463 20.920835093
100 6 2 24.3765704072 31.6755542303 20.6458554538
101 6 2 23.5414005204 31.1857280528 20.2780785551
102 6 2 22.9121001482 30.4734364548 19.8665934496
103 6 2 22.5396513346 29.594642275 19.4644728932
104 6 2 22.4516258652 28.6204839208 19.1239361275
105 6 2 22.6496722877 27.6307915904 18.8915894537
106 6 2 23.1093656581 26.7068112974 18.804178388
107 6 2 23.7824337071 25.9237998537 18.8852385594
108 6 2 24.6011565265 25.344165727 19.1429505989
109 7 1 7.98474449133 6.0949969559 21.0406522704
110 7 1 6.29126439402 1.29931379209 23.1549330179
111 7 2 8.12016835802 6.48207902666 21.4137589555
112 7 2 8.16362106211 7.15121236071 22.2031072404
113 7 2 7.93936247315 7.68789544228 23.0600655978
114 7 2 7.4763980842 8.03275984387 23.9199672143
115 7 2 6.82548978539 8.14392009552 24.7178770188
116 7 2 6.05452926569 8.00079125823 25.3945100686
117 7 2 5.24235015091 7.60596510004 25.9016349659
118 7 2 4.47154285919 6.98497387411 26.2064698186
119 7 2 3.82092705065 6.18396322893 26.2946700855
120 7 2 3.35836775579 5.26548634881 26.1716359825
121 7 2 3.13458994318 4.30280266001 25.8620202901
122 7 2 3.17855528643 3.37320073634 25.4074814213
123 7 2 3.49482250615 2.55095397549 24.8628865434
124 7 2 4.06313187385 1.90055108814 24.291310811
125 7 2 4.84025174727 1.47081839405 23.7582884991
126 7 2 5.76391883818 1.29046963781 23.3258400023
127 8 1 16.6695164022 29.0855642698 -0.483579118029
128 8 1 12.8233901827 26.1695955216 2.16992315071
129 8 2 16.9897460163 29.4021924386 -0.160190267551
130 8 2 17.3818512439 30.0669273487 0.530518977256
131 8 2 17.4774517256 30.7637283264 1.29079998877
132 8 2 17.2701937428 31.4178689753 2.06658501765
133 8 2 16.7813270495 31.9585110958 2.80239322966
134 8 2 16.0577681028 32.3251611006 3.44638740336
135 8 2 15.1678239498 32.4731835911 3.95509853738
136 8 2 14.1949665082 32.3778695677 4.29738775192
137 8 2 13.2302246737 32.0366884856 4.45728438415
138 8 2 12.3638876598 31.4695188968 4.43544160459
139 8 2 11.6772757556 30.7168366561 4.24907688512
140 8 2 11.2353285384 29.8360258249 3.93040274449
141 8 2 11.0806860768 28.896148507 3.52369079804
142 8 2 11.2298025808 27.9716503115 3.0812367035
143 8 2 11.6714467131 27.1355751459 2.65859377039
144 8 2 12.367725249 26.4529077648 2.30950965665
145 9 1 10.1470042043 19.1568016109 9.06212468109
146 9 1 5.52706188085 22.1468079141 9.29153732669
147 9 2 10.5876068611 19.4199679504 8.8523783384
148 9 2 11.2619374954 19.9656373785 8.28649730677
149 9 2 11.6875877774 20.5522832782 7.54665496077
150 9 2 11.8235848891 21.1439347253 6.70751753352
151 9 2 11.6553559131 21.7041645745 5.85280132404
152 9 2 11.196056054 22.1994095437 5.06764253053
153 9 2 10.4853696319 22.6020292771 4.43083766961
154 9 2 9.58589312854 22.8928255738 4.00766181409
155 9 2 8.57742994707 23.0627921729 3.8439192176
156 9 2 7.5497168793 23.1139356118 3.9617685709
157 9 2 6.59424521212 23.0590923443 4.35770338916
158 9 2 5.79592192406 22.9207587858 5.00287160399
159 9 2 5.22533099634 22.7290409194 5.84570523169
160 9 2 4.93230016685 22.5189103418 6.81662044139
161 9 2 4.94135947355 22.3270168421 7.83435964414
162 9 2 5.24950550963 22.1883480248 8.81339756508
163 10 1 5.63566702277 28.6770015116 4.35724066974
164 10 1 5.18255852479 23.3874263926 2.89036552975
165 10 2 5.82623367386 28.7634646832 4.87065008053
166 10 2 6.01548139876 28.7699363364 5.88890431568
167 10 2 5.98464327653 28.5634963786 6.90336467721
168 10 2 5.74972421308 28.1492939862 7.8231188198
169 10 2 5.34532969286 27.5514144571 8.56588622067
170 10 2 4.8215117263 26.810684001 9.06551748512
171 10 2 4.23920695217 25.9809487101 9.2780234103
172 10 2 3.66468268076 25.1241668572 9.18558429949
173 10 2 3.16349708288 24.3047618237 8.79817410527
174 10 2 2.79452401207 23.5837503501 8.15265137208
175 10 2 2.60458705649 23.0131812787 7.3093998327
176 10 2 2.62419188987 22.631391658 6.34682484489
177 10 2 2.86474588855 22.4595125842 5.35420728067
178 10 2 3.31751842728 22.4995432461 4.42356618692
179 10 2 3.95443661587 22.734168713 3.64127188016
180 10 2 4.7306439507 23.1283380719 3.08017388433
181 11 1 15.5669037934 17.0691445474 25.6494704616
182 11 1 18.2907221712 16.4941597401 30.4020319649
183 11 2 15.7622201747 17.4636170447 25.3123892967
184 11 2 16.1150359802 18.3341085348 24.8759676609
185 11 2 16.4397802547 19.3062529946 24.7270563564
186 11 2 16.7256663053 20.2896410131 24.8817025399
187 11 2 16.9654490998 21.1928384063 25.3282861844
188 11 2 17.1560856016 21.9317198156 26.0285791647
189 11 2 17.299012122 22.437136158 26.9212294892
190 11 2 17.4000134097 22.6612170903 27.9273531131
191 11 2 17.468695411 22.5817340636 28.9577236786
192 11 2 17.5176097538 22.2041263021 29.9209048852
193 11 2 17.5611097522 21.561005056 30.7315842818
194 11 2 17.6140422009 20.709181309 31.3183489117
195 11 2 17.6903941914 19.7244878469 31.6301941142
196 11 2 17.8020182844 18.6948676191 31.6411722493
197 11 2 17.9575522304 17.7123583416 31.3527576476
198 11 2 18.1616316978 16.8647038905 30.7937122348
199 12 1 14.6205893784 10.1118785103 8.88199240887
200 12 1 14.9944058259 12.2068101081 13.9621654169
201 12 2 14.8585403734 9.61578517589 8.8137906557
202 12 2 15.4873118373 8.79314531981 8.78912520458
203 12 2 16.3007161236 8.16416158466 8.91342805696
204 12 2 17.2203512274 7.77756250309 9.19183548688
205 12 2 18.1581329333 7.65998490842 9.61543819268
206 12 2 19.0243230875 7.81354616985 10.1620933188
207 12 2 19.7357086151 8.21565120881 10.7984426252
208 12 2 20.2231858219 8.82105188545 11.4829528623
209 12 2 20.4380587216 9.56597105638 12.1697012419
210 12 2 20.3564773419 10.373915424 12.8125609843
211 12 2 19.9816114852 11.1626473761 13.3694054584
212 12 2 19.3433618234 11.8516803805 13.8059477349
213 12 2 18.4956346564 12.3696147805 14.0988656051
214 12 2 17.5114287224 12.6606453841 14.2379272402
215 12 2 16.4761818636 12.6896477247 14.2269237524
216 12 2 15.4799839526 12.4453794154 14.0833236609
217 13 1 31.2681542701 24.4606004328 17.7734125685
218 13 1 27.7045980525 21.6877070202 20.9275787235
219 13 2 31.2737435104 25.00951459 17.8511477603
220 13 2 31.0512331864 26.0138990976 17.971144376
221 13 2 30.5429405847 26.9114353092 18.0647694319
222 13 2 29.7929923025 27.621542451 18.1423818805
223 13 2 28.8675401952 28.0807226241 18.2158001136
224 13 2 27.8487320889 28.2483482021 18.297224797
225 13 2 26.8272245685 28.1103647612 18.3981268634
226 13 2 25.8939202525 27.6805720443 18.5282020157
227 13 2 25.1316826416 26.9993662093 18.69448703
228 13 2 24.6077836794 26.1300579959 18.9007184015
229 13 2 24.3677723759 25.1531023859 19.1469917892
230 13 2 24.431323327 24.1587656836 19.4297532966
231 13 2 24.7904435106 23.2388983603 19.7421233854
232 13 2 25.4102007955 22.4785635142 20.0745238979
233 13 2 26.2319077656 21.9482839519 20.4155510408
234 13 2 27.1784706756 21.6976145183 20.7530147626
235 14 1 18.3480941586 28.8012506377 16.071874017
236 14 1 15.2825715808 25.464622689 12.9404014904
237 14 2 18.8325147175 28.9536423172 15.8494009855
238 14 2 19.7626275684 29.0073390334 15.3969575985
239 14 2 20.6466743773 28.7594722269 14.9176648311
240 14 2 21.3993248435 28.2349895022 14.4369014607
241 14 2 21.947224542 27.4840501085 13.9801803001
242 14 2 22.2356806762 26.5774532676 13.5708228795
243 14 2 22.233646952 25.6001853106 13.2278338488
244 14 2 21.936553234 24.6436737559 12.9641688346
245 14 2 21.3667220825 23.7974543187 12.7855536228
246 14 2 20.5713342048 23.1410103434 12.6899622931
247 14 2 19.6181282573 22.7365284424 12.6678018676
248 14 2 18.5892269315 22.6232306124 12.7027866448
249 14 2 17.5736520338 22.8137994186 12.7734225301
250 14 2 16.6592107578 23.2932220653 12.8549660743
251 14 2 15.924492661 24.0201587101 12.9216796704
252 14 2 15.4317067653 24.9307103062 12.9491773591
253 15 1 26.311454002 17.5356000746 25.6610643676
254 15 1 24.3948309257 18.1853993771 20.5384720769
255 15 2 25.9330014148 17.5893779095 26.0626391868
256 15 2 25.1736173162 17.8894204164 26.6998271935
257 15 2 24.3945027207 18.4168502795 27.132835805
258 15 2 23.6514850548 19.1151975127 27.3143135199
259 15 2 22.9971017573 19.9124141836 27.2198341534
260 15 2 22.4758118521 20.7274410883 26.8501231169
261 15 2 22.1199438129 21.4775957421 26.2309913012
262 15 2 21.9467490444 22.0861083213 25.4109825914
263 15 2 21.9568295351 22.4891187063 24.456949424
264 15 2 22.1340829903 22.6414968933 23.4479596462
265 15 2 22.4471704455 22.5209562852 22.468090023
266 15 2 22.8523725985 22.1300849618 21.5987632175
267 15 2 23.2975745242 21.4961097942 20.9113266725
268 15 2 23.7270155921 20.6684149023 20.4605497808
269 15 2 24.086371666 19.7140406305 20.2796320301
270 15 2 24.3277063763 18.7115732802 20.3771770979
271 16 1 2.51506829048 10.4915439401 7.0229839924
272 16 1 3.57179352584 8.79619170295 1.89017311571
273 16 2 2.68059292635 11.0077551609 7.1392093001
274 16 2 3.19376609053 11.8985562254 7.26500690742
275 16 2 3.92661990637 12.6302367489 7.24866165561
276 16 2 4.8083856322 13.1451728489 7.07537493162
277 16 2 5.75472222671 13.4054954114 6.74465226161
278 16 2 6.67540345662 13.3965416003 6.27034837879
279 16 2 7.48254139922 13.1281912752 5.67940445955
280 16 2 8.098596824 12.6339665091 5.00939261987
281 16 2 8.46344636185 11.9679762821 4.3050914746
282 16 2 8.53986233796 11.1999848179 3.61440487369
283 16 2 8.31690581915 10.4090530541 2.98399579473
284 16 2 7.8109236226 9.67633277915 2.45503333243
285 16 2 7.06405841561 9.07767020335 2.05944041794
286 16 2 6.1404077003 8.67669309689 1.81698426252
287 16 2 5.12018176586 8.51901155479 1.73347471176
288 16 2 4.09239307056 8.62806094941 1.80023471798
289 17 1 29.1331532197 22.9437696488 19.7474583294
290 17 1 27.9070031789 17.5780553989 19.9531318385
291 17 2 28.9518178425 23.2433670308 20.1772718254
292 17 2 28.408281604 23.697274728 20.9330723486
293 17 2 27.6454541901 23.9675845168 21.5793890093
294 17 2 26.7356786102 24.0176375176 22.0718332827
295 17 2 25.7646911913 23.830849747 22.3800410572
296 17 2 24.8238073 23.4122236344 22.4904401148
297 17 2 24.0015985727 22.787892084 22.4074871461
298 17 2 23.3758202181 22.0027366409 22.153261553
299 17 2 23.0063241634 21.116296845 21.765453063
300 17 2 22.9296039613 20.1973436107 21.2939265687
301 17 2 23.1554686525 19.3176112293 20.796177285
302 17 2 23.6661487396 18.5452592804 20.3320904539
303 17 2 24.4179157544 17.9386603533 19.9584832161
304 17 2 25.3450678082 17.5410797857 19.7239261173
305 17 2 26.3659178684 17.3767323251 19.6643162367
306 17 2 27.3902389716 17.4485751202 19.7996054137
307 18 1 17.8523617978 30.9902554001 19.7982075733
308 18 1 20.8009078984 27.3782265524 16.8663210777
309 18 2 17.5128867205 30.7663068404 20.1750158351
310 18 2 16.8095845805 30.2144337448 20.6979885469
311 18 2 16.0820810331 29.5217075367 20.9501140318
312 18 2 15.4072373634 28.7368189638 20.9149825525
313 18 2 14.85711527 27.9168587417 20.6023658744
314 18 2 14.4924089344 27.1221141261 20.0473266362
315 18 2 14.3569131635 26.4105741432 19.3070226311
316 18 2 14.4735317925 25.8326442875 18.4554972655
317 18 2 14.8421901575 25.4265524062 17.5769310102
318 18 2 15.4398419008 25.2148644934 16.7579689278
319 18 2 16.2225694883 25.2024279543 16.0798235692
320 18 2 17.1295869915 25.3759297976 15.6108730063
321 18 2 18.0887803082 25.705110023 15.4004286397
322 18 2 19.0232798686 26.1455196134 15.4742408025
323 18 2 19.8584667696 26.6425717572 15.8321517941
324 18 2 20.5287737758 27.1365170628 16.4481102534
325 19 1 3.30862062493 32.2673504336 6.20270678042
326 19 1 4.15473761129 27.7244813322 9.19988233403
327 19 2 2.92442502537 32.2194392927 5.80587052264
328 19 2 2.32834616156 31.9368385067 5.00741886164
329 19 2 1.92665512357 31.417615822 4.20632561813
330 19 2 1.74287535404 30.6982467041 3.48422358963
331 19 2 1.78066917756 29.8334485935 2.91554606595
332 19 2 2.0235040048 28.8911937865 2.56074274522
333 19 2 2.43615916476 27.946514226 2.46077015827
334 19 2 2.96793602738 27.0746628549 2.63335876173
335 19 2 3.55727883616 26.3442548255 3.07139692842
336 19 2 4.13738509324 25.8110136996 3.74357912342
337 19 2 4.64229414915 25.5126926275 4.59725918894
338 19 2 5.01289906374 25.4656334071 5.56324868068
339 19 2 5.20233379854 25.6632770412 6.56212292012
340 19 2 5.18024473483 26.0767615454 7.51146000946
341 19 2 4.93555719792 26.6575525193 8.33335302252
342 19 2 4.47748483777 27.3418667254 8.96151068686
343 20 1 15.6207778641 21.9563616245 7.18200502802
344 20 1 15.7264099338 19.1775675757 11.9363483504
345 20 2 15.5060725693 22.4968574171 7.22769687721
346 20 2 15.1108654096 23.4298230229 7.44237046764
347 20 2 14.5209130022 24.1923567025 7.82078401868
348 20 2 13.7993767184 24.7195412272 8.34438705461
349 20 2 13.021410898 24.9679098303 8.98139607363
350 20 2 12.2673130459 24.9194079049 9.68969139609
351 20 2 11.6152052655 24.5830385571 10.4206560845
352 20 2 11.1339139644 23.9940420352 11.1236070442
353 20 2 10.8766967992 23.2106838222 11.7504144397
354 20 2 10.8763886053 22.3089441366 12.2598883994
355 20 2 11.1424087267 21.3755928567 12.6215331899
356 20 2 11.6599025075 20.5002810409 12.818326693
357 20 2 12.391095192 19.7673698481 12.8482718553
358 20 2 13.2787348344 19.248241597 12.7245787056
359 20 2 14.2513104213 18.9947937568 12.4744603513
360 20 2 15.2295696104 19.0347088487 12.1366526908
361 21 1 14.4982346232 15.9289707291 16.1722724211
362 21 1 13.0192291143 15.4557426639 21.4567054872
363 21 2 15.0026213443 15.7336316499 16.0505455492
364 21 2 16.0108063105 15.5005644523 16.0064884689
365 21 2 17.0241923314 15.4438763591 16.2127249927
366 21 2 17.95124817 15.5531612234 16.6614148207
367 21 2 18.7083109933 15.8028856009 17.3226196966
368 21 2 19.2272116663 16.1547159487 18.1470320746
369 21 2 19.4614879012 16.5610124649 19.0704691638
370 21 2 19.3906189762 16.9691711295 20.0197227501
371 21 2 19.0218960587 17.3264182006 20.9192316225
372 21 2 18.3897576657 17.584620179 21.6979684596
373 21 2 17.5526508283 17.7046708466 22.295913483
374 21 2 16.5877040463 17.66005553 22.6695248489
375 21 2 15.5836975541 17.4392677314 22.7957071878
376 21 2 14.6329716106 17.046857867 22.67391659
377 21 2 13.8230103181 16.5030185273 22.3262101787
378 21 2 13.2284680461 15.8417440617 21.7952357547
379 22 1 21.7992837367 8.50978952757 24.8413843002
380 22 1 18.4222389418 5.81260704915 28.2556792579
381 22 2 21.8478476235 9.05337918191 24.9390192746
382 22 2 21.7033948785 10.0627157572 25.1208745831
383 22 2 21.2657848268 10.9834988512 25.3035059267
384 22 2 20.5748015724 11.7323068972 25.4893201439
385 22 2 19.6933224491 12.2413926752 25.6804339766
386 22 2 18.7015871836 12.4648580063 25.8784811428
387 22 2 17.6898845937 12.3828370571 26.0844634346
388 22 2 16.750323382 12.0033069742 26.298659412
389 22 2 15.9684370591 11.361360822 26.5205990138
390 22 2 15.4153881506 10.5160090904 26.7491064006
391 22 2 15.1414822206 9.54480129343 26.9824071242
392 22 2 15.1715828645 8.53675786245 27.2182898569
393 22 2 15.502845563 7.5842565444 27.4543079384
394 22 2 16.1049769401 6.77461280338 27.6880023724
395 22 2 16.9229957969 6.18212161482 27.9171259469
396 22 2 17.882244271 5.8612859878 28.1398480527
397 23 1 23.7571094407 27.5911321942 24.3707478732
398 23 1 19.1440348635 26.5309365023 27.187157461
399 23 2 23.8096751719 28.1136847334 24.1931065511
400 23 2 23.6901854521 29.0554405192 23.7789610238
401 23 2 23.2922400477 29.8852633201 23.3038485684
402 23 2 22.6449539893 30.5373109634 22.825776502
403 23 2 21.8001679986 30.961944263 22.4030218901
404 23 2 20.827723562 31.1302512912 22.0888199914
405 23 2 19.8090973582 31.0366825026 21.9265122288
406 23 2 18.8299752171 30.6995565369 21.9455959166
407 23 2 17.9724424443 30.1593906006 22.1590357815
408 23 2 17.307502308 29.4752076018 22.5620823176
409 23 2 16.888604578 28.719156616 23.1327046707
410 23 2 16.7467739459 27.9699369932 23.8335985998
411 23 2 16.8877823366 27.3056254517 24.6155865028
412 23 2 17.2916228375 26.7965599198 25.4220996182
413 23 2 17.914333191 26.498928717 26.1943338792
414 23 2 18.6920026531 26.4496493729 26.8766095017
415 24 1 25.1998164384 2.37532806951 2.34532588923
416 24 1 20.1018979625 2.3255319689 4.42988399312
417 24 2 25.5803939208 2.62739898049 2.65997138396
418 24 2 26.1330391273 3.27223854858 3.2528149369
419 24 2 26.4317179084 4.08617572945 3.81937960437
420 24 2 26.4438540829 4.98970487683 4.32552786742
421 24 2 26.162987864 5.89515465096 4.74262874812
422 24 2 25.6093646238 6.7146786601 5.05016732693
423 24 2 24.8280896671 7.3682620569 5.23761453696
424 24 2 23.8850171918 7.7910143431 5.30538681621
425 24 2 22.8607481302 7.93908369358 5.26480815213
426 24 2 21.8432839268 7.79365374955 5.13707797779
427 24 2 20.9200058102 7.36265860065 4.9513389889
428 24 2 20.1697105925 6.68005964708 4.74202098689
429 24 2 19.6554288808 5.80275025082 4.54570283859
430 24 2 19.4186802693 4.80537029574 4.39777856329
431 24 2 19.4756891127 3.77350327393 4.32923141053
432 24 2 19.815905788 2.79587593716 4.36380994938
433 25 1 6.29125890055 13.6910875604 3.66473380338
434 25 1 8.2152115735 8.88613320318 5.54820258839
435 25 2 6.17935932493 14.0690117897 4.05464727266
436 25 2 5.85142774849 14.5980280905 4.88247630436
437 25 2 5.40787108888 14.8529501939 5.78301529963
438 25 2 4.90343493223 14.8077576345 6.68645321534
439 25 2 4.39841361342 14.4637833409 7.52271479161
440 25 2 3.95315480086 13.8495921482 8.22784743137
441 25 2 3.62255922022 13.0183773091 8.74985004106
442 25 2 3.45107682978 12.0431122941 9.0534125738
443 25 2 3.46865551137 11.0098997592 9.12313429808
444 25 2 3.68801152637 10.0101238798 8.96492746885
445 25 2 4.1034705156 9.13212130941 8.60547846599
446 25 2 4.69148467831 8.4531298991 8.08981551379
447 25 2 5.41277899272 8.03224899732 7.477204667
448 25 2 6.21593086501 7.90505294925 6.83574811626
449 25 2 7.04205694619 8.08034873919 6.23617714038
450 25 2 7.83017994563 8.53937329431 5.74540543518
451 26 1 8.39612367698 18.815333079 30.1001010085
452 26 1 4.79440490104 17.0648634331 33.8816500039
453 26 2 8.39432472932 19.3621422594 30.0085737684
454 26 2 8.1588421677 20.3521434251 29.8158461728
455 26 2 7.63933952594 21.2276389894 29.6252607766
456 26 2 6.88054555609 21.9156623281 29.4717880827
457 26 2 5.94899877417 22.3603336253 29.3870160256
458 26 2 4.9269829306 22.527952935 29.3962709479
459 26 2 3.9050274105 22.4100717005 29.5163092776
460 26 2 2.97365610094 22.0242627823 29.7537902946
461 26 2 2.21513675922 21.4125188122 30.1046691831
462 26 2 1.6959828709 20.6374248531 30.5545656889
463 26 2 1.46089140154 19.7764541994 31.0800747806
464 26 2 1.52866897482 18.9149072173 31.6508998583
465 26 2 1.89051777763 18.1381368016 32.2326140804
466 26 2 2.51083742053 17.5237690441 32.7897981347
467 26 2 3.33046966905 17.134628148 33.2892684653
468 26 2 4.27209031128 17.013010432 33.7031017269
469 27 1 14.922361839 14.8729711917 20.9831993462
470 27 1 18.0788341329 19.0650826336 22.6563757396
471 27 2 14.6284110234 14.6254535165 21.3828350179
472 27 2 14.2866441219 14.1556477777 22.2402591976
473 27 2 14.2365946829 13.7264874808 23.1815427703
474 27 2 14.4776640573 13.3919620583 24.1316356971
475 27 2 14.9827201122 13.1974356226 25.0146850266
476 27 2 15.7005701386 13.1755123385 25.7609483717
477 27 2 16.5606267159 13.3430647766 26.3131504502
478 27 2 17.4793412714 13.6996960949 26.6317033334
479 27 2 18.3678189598 14.2277762076 26.6983146153
480 27 2 19.1399208191 14.8940486466 26.5176546392
481 27 2 19.720114746 15.652661661 26.1169308284
482 27 2 20.0503597297 16.4493472895 25.5434079158
483 27 2 20.0953958919 17.2263675128 24.8601000879
484 27 2 19.8459581826 17.9277766789 24.1400276734
485 27 2 19.3196208268 18.5045205648 23.4595618411
486 27 2 18.5591955533 18.9189073334 22.8914638912
487 28 1 14.8526665381 10.5449354205 22.8366653563
488 28 1 11.0566267158 6.6955625237 23.8897773616
489 28 2 14.8597783237 10.9716351428 23.1905827494
490 28 2 14.6420311532 11.7743960899 23.8077207426
491 28 2 14.1395766898 12.5126749391 24.3322987865
492 28 2 13.3947898246 13.1104600825 24.7331026273
493 28 2 12.4721323854 13.5045449503 24.9901991811
494 28 2 11.4522778835 13.6502888561 25.0967532981
495 28 2 10.4247586758 13.5256856895 25.0596507394
496 28 2 9.47980570493 13.1333696224 24.8988705871
497 28 2 8.70012456685 12.500375022 24.645664288
498 28 2 8.15335746321 11.6756724537 24.3397072987
499 28 2 7.88591807827 10.7257053499 24.0254829393
500 28 2 7.91876128982 9.7283341463 23.7482280442
501 28 2 8.24547327579 8.76573983765 23.5498099345
502 28 2 8.83285609006 7.91693374295 23.4649104988
503 28 2 9.62395342775 7.2505561657 23.5178651768
504 28 2 10.5432418018 6.81862030077 23.7204449511
505 29 1 28.4929663054 19.0050472834 14.7103638624
506 29 1 24.0514236244 15.7631496214 14.3950337355
507 29 2 28.4843657409 19.376851381 15.1215432575
508 29 2 28.255352659 20.1220283342 15.8034249099
509 29 2 27.7620072924 20.8645207393 16.330694906
510 29 2 27.0411789378 21.5266543265 16.6693449715
511 29 2 26.150450406 22.0380789812 16.8025582458
512 29 2 25.1628897447 22.3421806747 16.7322420229
513 29 2 24.1603905858 22.401241445 16.4788539155
514 29 2 23.2262081032 22.19987713 16.0795372831
515 29 2 22.437370874 21.7464395287 15.5847358699
516 29 2 21.8576602518 21.0722551919 15.0535962031
517 29 2 21.5317971341 20.2287702218 14.5485767927
518 29 2 21.4813659586 19.2828613127 14.1297554664
519 29 2 21.7028474297 18.3107403988 13.8493536874
520 29 2 22.1679392786 17.3910084585 13.7469769263
521 29 2 22.8261358206 16.5974915747 13.8460048938
522 29 2 23.6093312022 15.9925121932 14.1514606406
523 30 1 9.29353274861 4.77690742696 5.92877726634
524 30 1 12.6991098755 8.77198321502 7.5955252398
525 30 2 8.91730749541 4.93038475111 5.5515770258
526 30 2 8.17273848398 5.39175849334 4.99890214099
527 30 2 7.44239184391 6.05244328193 4.67829698422
528 30 2 6.80295266321 6.86416316716 4.60810700496
529 30 2 6.32282043823 7.76487638577 4.78385402614
530 30 2 6.05587492856 8.68443004229 5.17864439928
531 30 2 6.03656538629 9.55095406454 5.74562017613
532 30 2 6.27677074292 10.2974116679 6.42222988943
533 30 2 6.76471692616 10.8677092986 7.13592969026
534 30 2 7.46604998593 11.2218091768 7.81079522254
535 30 2 8.32696722134 11.3393784652 8.3744416075
536 30 2 9.27912092804 11.2216424684 8.76462082911
537 30 2 10.2458478228 10.8912729543 8.93489521398
538 30 2 11.1491563763 10.390321778 8.8588699069
539 30 2 11.9168352061 9.77638814387 8.53259858093
540 30 2 12.4890346493 9.11736883235 7.97494311802
541 31 1 11.0995957846 28.156009337 19.654583015
542 31 1 8.39072644654 23.9374819495 21.9355232855
543 31 2 11.296376653 28.5307015094 20.0127223977
544 31 2 11.4445115003 29.225562009 20.7663292078
545 31 2 11.3012855367 29.8486795938 21.5811353626
546 31 2 10.8855072335 30.3321655291 22.3972652689
547 31 2 10.2408263389 30.6208575476 23.1547226828
548 31 2 9.43175550323 30.677347512 23.7988589555
549 31 2 8.53779039264 30.4853909101 24.2853538837
550 31 2 7.64616420447 30.051387431 24.5842551915
551 31 2 6.84389695933 29.4037976771 24.6827084755
552 31 2 6.2098642228 28.5905491754 24.5861287953
553 31 2 5.80760813846 27.674668112 24.3177071282
554 31 2 5.67954599712 26.7285349273 23.9162966702
555 31 2 5.84310419158 25.8272873351 23.432871634
556 31 2 6.2891299204 25.0419720353 22.9258812986
557 31 2 6.98272540306 24.4330692941 22.4559227586
558 31 2 7.86642857328 24.0449805825 22.0802179144
559 32 1 18.6443295831 24.7922117718 6.34268445344
560 32 1 21.0417326807 19.9364846914 5.337195599
561 32 2 18.4947695344 24.8762675405 6.86989140636
562 32 2 18.1148761511 24.8218187179 7.83187613293
563 32 2 17.6475259011 24.4910560294 8.69493931646
564 32 2 17.1498357554 23.9061553833 9.38984508282
565 32 2 16.6816879585 23.1124556203 9.86268395353
566 32 2 16.3002721724 22.1743261892 10.0797863251
567 32 2 16.054873031 21.1693003127 10.0307912227
568 32 2 15.9823781835 20.1810083659 9.72959063172
569 32 2 16.1039162382 19.2915555409 9.21306333875
570 32 2 16.4229310347 18.5740385214 8.53771368297
571 32 2 16.9248677614 18.0858832216 7.77452157302
572 32 2 17.578499527 17.863610807 7.00247315497
573 32 2 18.3387734774 17.9195090414 6.30136176666
574 32 2 19.1509170545 18.240512341 5.74451532202
575 32 2 19.9554301394 18.7893926128 5.39211297447
576 32 2 20.6935080802 19.5081523402 5.28570019966
577 33 1 16.6127745646 16.7588817539 11.3276794908
578 33 1 13.9988544122 12.8279309692 14.1652281322
579 33 2 16.6325844728 17.2544595487 11.5754514999
580 33 2 16.4381288292 18.1468293921 12.0638789115
581 33 2 15.9616822255 18.920125491 12.5615836918
582 33 2 15.2493469135 19.4989459123 13.0414207415
583 33 2 14.3687247834 19.8256138473 13.4778734827
584 33 2 13.402755915 19.8654344578 13.8493795195
585 33 2 12.4421591583 19.6098570725 14.140295903
586 33 2 11.577163732 19.0772545223 14.3423248785
587 33 2 10.889285449 18.3112485822 14.4552701694
588 33 2 10.4438971092 17.3767341463 14.487054866
589 33 2 10.2842702162 16.3539645027 14.4529992902
590 33 2 10.4276310775 15.3312367965 14.3744246536
591 33 2 10.8635907436 14.3968443506 14.2767097747
592 33 2 11.5550918905 13.6310293344 14.1869779741
593 33 2 12.4417863398 13.0986692406 14.1316249694
594 33 2 13.4455353822 12.8433637461 14.1339130866