LAMMPS input file for bananas

4320 atoms

2 atom types

0 100.793683992 xlo xhi
0 100.793683992 ylo yhi
0 100.793683992 zlo zhi

Masses

 1 1
 2 1

Atoms

1 1 1 62.2497153519 72.5127348651 97.5612080354
2 1 1 58.2052632356 68.7720539275 97.9707251456
3 1 2 62.1923754524 72.9556601662 97.8897059831
4 1 2 61.8691058591 73.7906640835 98.410969102
5 1 2 61.2857332604 74.561424247 98.7838701515
6 1 2 60.4882660567 75.189787882 98.990401535
7 1 2 59.5422267993 75.6105812771 99.0277198064
8 1 2 58.5266799852 75.7775501931 98.9084048425
9 1 2 57.5270255393 75.667575814 98.6593132209
10 1 2 56.6272148398 75.2827819648 98.3191303145
11 1 2 55.902098774 74.6503415307 97.9348442236
12 1 2 55.4106052805 73.8199997212 97.5574629357
13 1 2 55.1903682248 72.8595399272 97.237365084
14 1 2 55.254297173 71.8486054462 97.0197080698
15 1 2 55.5894007195 70.8714402084 96.9403120854
16 1 2 56.157970619 70.0092101679 97.0223952002
17 1 2 56.9010187918 69.3326052424 97.2744570953
18 1 2 57.7436539303 68.895396117 97.6895043399
19 2 1 25.2516217349 58.528195853 37.2709301506
20 2 1 29.8096974823 56.3647013311 39.5206474652
21 2 2 24.9260432454 58.1648502759 37.0075668524
22 2 2 24.5181451556 57.4239380366 36.4091370627
23 2 2 24.4039261677 56.6492886052 35.7306665089
24 2 2 24.5951335843 55.8961005549 35.0453946681
25 2 2 25.0756759076 55.2176163117 34.4271809361
26 2 2 25.8030895362 54.660269249 33.9437725417
27 2 2 26.7124092093 54.2594514103 33.6506295672
28 2 2 27.7220894162 54.0362876185 33.5858699106
29 2 2 28.7414370516 53.9957100048 33.7667949408
30 2 2 29.6788778503 54.1260084586 34.1883125242
31 2 2 30.4503031361 54.3998979723 34.8234011589
32 2 2 30.9867361031 54.7770055968 35.6255729127
33 2 2 31.2406188672 55.2075503284 36.5331106735
34 2 2 31.1901472403 55.6368805138 37.4746934994
35 2 2 30.8412581232 56.0104552022 38.3758973317
36 2 2 30.2270883736 56.2788154075 39.1659785491
37 3 1 24.7173439997 57.2194205153 29.4596783373
38 3 1 21.5278688556 53.7905578712 32.3902312432
39 3 2 24.6043626615 57.7580630753 29.5266185927
40 3 2 24.1724931921 58.6963510843 29.6075777472
41 3 2 23.4858729371 59.4715330589 29.6406767329
42 3 2 22.6030290513 60.0137836626 29.641660299
43 3 2 21.6003739492 60.2745086307 29.6292004295
44 3 2 20.5652405172 60.230774008 29.6231944416
45 3 2 19.5879219547 59.8873965171 29.6429513983
46 3 2 18.7534417904 59.2765045269 29.7054321393
47 3 2 18.1338042147 58.4546096384 29.8237033454
48 3 2 17.7814310902 57.4974558025 30.0057465455
49 3 2 17.7243838392 56.4931154617 30.253730622
50 3 2 17.9638057199 55.5339619824 30.5638141224
51 3 2 18.4738176217 54.7082500691 30.9264953978
52 3 2 19.2038768765 54.0920715845 31.3274786527
53 3 2 20.0833840885 53.7424199792 31.7489769685
54 3 2 21.0281180796 53.6919954911 32.1713335336
55 4 1 2.37361449539 58.0455308242 14.8321011324
56 4 1 5.13165542518 62.8302890225 14.9635936229
57 4 2 2.6403926596 57.6289419768 14.5817718863
58 4 2 3.16737387566 57.0078425446 13.9414779661
59 4 2 3.70417676275 56.6430663536 13.1338697677
60 4 2 4.21998420634 56.5708664097 12.2382248266
61 4 2 4.68589277048 56.8008281753 11.3418449923
62 4 2 5.0775471687 57.3149958809 10.5320990976
63 4 2 5.37736018331 58.0695091451 9.88845952329
64 4 2 5.57611569324 58.9986007312 9.47525850315
65 4 2 5.6738086989 60.0205910552 9.33582441256
66 4 2 5.67964577781 61.0453330611 9.48853250302
67 4 2 5.61120592973 61.9824288849 9.92513004702
68 4 2 5.49283829779 62.7494693775 10.6114885522
69 4 2 5.35344280916 63.2795454789 11.490714482
70 4 2 5.22383602396 63.5273467998 12.4883349498
71 4 2 5.13394228814 63.4732915431 13.5190857231
72 4 2 5.11006620935 63.1253113314 14.4946828307
73 5 1 42.9942924024 71.9982296755 5.82587627631
74 5 1 39.2039602763 73.3260468965 2.03268832126
75 5 2 43.3758840224 72.3888985048 5.92151773942
76 5 2 44.1097750108 73.1181201474 5.86593155219
77 5 2 44.8028351055 73.8012562118 5.51034354069
78 5 2 45.3813848866 74.3920916931 4.88612915772
79 5 2 45.7821822435 74.8528245381 4.04914843189
80 5 2 45.9581867237 75.1575112011 3.07465447524
81 5 2 45.8828471448 75.2944313287 2.05043436331
82 5 2 45.5525216635 75.2671560389 1.06880757776
83 5 2 44.9868097199 75.0942224231 0.21821133238
84 5 2 44.2267656013 74.8074439399 -0.424860242531
85 5 2 43.331156453 74.4490107032 -0.802828335743
86 5 2 42.3711058106 74.0676439662 -0.882277609816
87 5 2 41.4236108797 73.7141553092 -0.657001919809
88 5 2 40.5645244463 73.4368153003 -0.148569986794
89 5 2 39.861641098 73.2769537616 0.595640533415
90 5 2 39.368517929 73.2651926668 1.50676139696
91 6 1 48.9000586066 89.8354225675 49.7806694332
92 6 1 44.1686301365 88.7077445179 52.3998139328
93 6 2 49.1750663255 89.3917776448 49.5937696599
94 6 2 49.6582993479 88.4844996828 49.4642221522
95 6 2 50.0508638269 87.5392040964 49.6247194901
96 6 2 50.3026059864 86.6307854826 50.0546631124
97 6 2 50.3762076283 85.8307772006 50.7088951493
98 6 2 50.2505875868 85.2008312977 51.5218144416
99 6 2 49.9228232198 84.7870990899 52.4133559108
100 6 2 49.4084168003 84.6160245929 53.296288277
101 6 2 48.7398825256 84.6919342204 54.0841649571
102 6 2 47.9637829349 84.9966424434 54.6992034399
103 6 2 47.1364848585 85.4911093524 55.0793749537
104 6 2 46.319021732 86.1189990409 55.1840582235
105 6 2 45.5715305614 86.8118144728 54.9977419911
106 6 2 44.947770596 87.4951408036 54.5314388254
107 6 2 44.4902233164 88.0954280954 53.821681356
108 6 2 44.2262203613 88.5466951967 52.9271924214
109 7 1 71.0637239139 94.4251028441 22.847815531
110 7 1 74.6243942741 91.2900029318 25.6781452268
111 7 2 70.6247329816 94.5999343014 23.1378198602
112 7 2 69.7856175402 94.69934484 23.7373637136
113 7 2 68.9961876256 94.499347006 24.3778723298
114 7 2 68.3362560359 94.021820346 25.0181133759
115 7 2 67.873832143 93.3139404175 25.616878907
116 7 2 67.6589230201 92.4438788626 26.1367413606
117 7 2 67.7189754308 91.4945897451 26.547464979
118 7 2 68.0563741297 90.5562485097 26.8287617174
119 7 2 68.6482244987 89.7180327306 26.9721404453
120 7 2 69.4484393297 89.0599938143 26.9816808902
121 7 2 70.3919395511 88.645760528 26.8736617814
122 7 2 71.4005860109 88.5167394073 26.6750770873
123 7 2 72.3903016515 88.688340661 26.4211755874
124 7 2 73.2787349089 89.1485735723 26.1522480401
125 7 2 73.9927658376 89.85913942 25.9099547878
126 7 2 74.4751707984 90.7589223049 25.7335285283
127 8 1 60.3161763414 15.6070796376 72.0030268719
128 8 1 63.3764434177 16.7372851223 67.5448442774
129 8 2 60.2171884117 16.0404226884 72.3343828408
130 8 2 60.265133485 16.8799839195 72.9396003391
131 8 2 60.6088906318 17.7026402656 73.4673479791
132 8 2 61.2145988515 18.4475634928 73.8567795511
133 8 2 62.0245210032 19.0610105335 74.0596559856
134 8 2 62.9623063919 19.5012220229 74.0447422153
135 8 2 63.9399499303 19.7422285537 73.8006541676
136 8 2 64.8658135675 19.7762177182 73.3368963933
137 8 2 65.6529788518 19.6142461883 72.6829957511
138 8 2 66.227169316 19.2852319296 71.8858101143
139 8 2 66.5335205784 18.8333184056 71.0052574003
140 8 2 66.5415810847 18.3138510197 70.1088542129
141 8 2 66.2480876856 17.7883325291 69.2655618841
142 8 2 65.6772630646 17.3188172331 68.5395008329
143 8 2 64.8786079045 16.9622548893 67.9841061611
144 8 2 63.922389033 16.7652998959 67.6372571859
145 9 1 38.6169247863 50.5047471248 34.9879336181
146 9 1 36.0925642211 45.9330705032 33.1864432171
147 9 2 38.6947838129 50.5279026523 35.5363708357
148 9 2 38.611361683 50.5175850379 36.5690296885
149 9 2 38.2417174654 50.4232659042 37.5323142075
150 9 2 37.623909622 50.2352848082 38.3425157795
151 9 2 36.818616066 49.9525183447 38.9298788929
152 9 2 35.9036035322 49.5824825414 39.2449591659
153 9 2 34.9666393469 49.140647793 39.2631300698
154 9 2 34.0974916709 48.649028776 38.9868275713
155 9 2 33.3797473713 48.1341778703 38.445328101
156 9 2 32.8831933021 47.62476498 37.6920800842
157 9 2 32.6574554192 47.1489643488 36.7998322606
158 9 2 32.7274755066 46.7318865528 35.8540028306
159 9 2 33.0912378002 46.3932897386 34.9448938149
160 9 2 33.7199527186 46.1457787211 34.1594602666
161 9 2 34.5606809569 45.9936560882 33.5733845505
162 9 2 35.5411587627 45.9325300317 33.2441780976
163 10 1 55.4371258763 45.8721403648 76.2071038937
164 10 1 54.3887989461 46.8199984794 70.8666388668
165 10 2 54.9946647062 45.8980206748 76.5401803272
166 10 2 54.1321000064 46.1523451036 77.0547201554
167 10 2 53.2810329306 46.6463284162 77.3789351005
168 10 2 52.5054427722 47.3269069822 77.4723306719
169 10 2 51.8624293051 48.1240095129 77.3154509478
170 10 2 51.3970082923 48.9569438716 76.9116519307
171 10 2 51.1380084193 49.7417519462 76.2867956568
172 10 2 51.0954436363 50.3988622066 75.4868929402
173 10 2 51.2596004134 50.8603424375 74.5739096106
174 10 2 51.6019231034 51.0760915777 73.6201184932
175 10 2 52.0776167121 51.0184062982 72.7015119341
176 10 2 52.6297298424 50.6845060864 71.8908753009
177 10 2 53.1943456623 50.0967866827 71.251152791
178 10 2 53.7064077529 49.3007787684 70.8297102363
179 10 2 54.1056498274 48.3609979657 70.6540178343
180 10 2 54.3420888417 47.3550644116 70.7291463127
181 11 1 72.1546069644 13.3120830298 57.8525717599
182 11 1 67.2445720904 12.1240834474 55.6169050607
183 11 2 72.1883028447 13.229313457 58.3997420931
184 11 2 72.0536642833 13.2021871641 59.4266727788
185 11 2 71.6650690768 13.3289721861 60.3787070927
186 11 2 71.0475794628 13.5820750467 61.1712318744
187 11 2 70.2471207923 13.922388736 61.7341728312
188 11 2 69.3262955568 14.3028572103 62.0183816222
189 11 2 68.3586773385 14.6727644245 62.0001155986
190 11 2 67.4221047748 14.9823569642 61.6832018822
191 11 2 66.5915867749 15.1873789362 61.0986885342
192 11 2 65.9324656578 15.2531057752 60.3020146067
193 11 2 65.4944613746 15.157509295 59.3679570217
194 11 2 65.3071396684 14.8932654987 58.3838148543
195 11 2 65.377217235 14.4684221414 57.4414522555
196 11 2 65.6879495146 13.9056651992 56.6289252802
197 11 2 66.2006569137 13.2402511027 56.0224558133
198 11 2 66.8582503462 12.5167932076 55.6794841486
199 12 1 18.4253560127 48.0159396144 4.94820103121
200 12 1 16.0289202194 43.5882454141 7.22209870224
201 12 2 18.2285463991 48.5037982827 5.12324812154
202 12 2 17.6522353488 49.3193773579 5.39919441427
203 12 2 16.8494614647 49.9420362064 5.60241857807
204 12 2 15.8903718263 50.3115396769 5.73304882676
205 12 2 14.8593612759 50.3907270543 5.79783011546
206 12 2 13.8473800549 50.1688991596 5.80950935603
207 12 2 12.9436439321 49.6627935511 5.78567357006
208 12 2 12.2275024251 48.915058941 5.7471468789
209 12 2 11.7612063035 47.9903678791 5.71609244064
210 12 2 11.5842335978 46.9695220228 5.7139923375
211 12 2 11.7096912824 45.9420872823 5.75968954142
212 12 2 12.1231206101 44.9982301265 5.86767042757
213 12 2 12.783814988 44.2204991514 6.04674437994
214 12 2 13.6285302747 43.676300995 6.29924083957
215 12 2 14.5772493151 43.4117564037 6.62079698219
216 12 2 15.5404752895 43.4474964484 7.000755378
217 13 1 15.1663717127 9.788346111 72.2262429313
218 13 1 11.2005301123 13.3386207547 73.7046344274
219 13 2 15.6104856759 10.0199584404 71.9885454247
220 13 2 16.279631054 10.5576301867 71.4083699622
221 13 2 16.6883185039 11.2016368112 70.7071709554
222 13 2 16.8011735177 11.9094634708 69.9590431742
223 13 2 16.6097859235 12.6327782969 69.2423588208
224 13 2 16.1334764499 13.3218377157 68.632624113
225 13 2 15.4175356933 13.9300204425 68.1955970943
226 13 2 14.529096001 14.4180768867 67.9812939639
227 13 2 13.5510125374 14.7577066473 68.0194302338
228 13 2 12.5743112569 14.934138019 68.3167122395
229 13 2 11.6898921317 14.9474743932 68.8562258753
230 13 2 10.980243862 14.8126848346 69.5989782697
231 13 2 10.5119252519 14.5582396907 70.4874518818
232 13 2 10.329498552 14.2235155957 71.450847071
233 13 2 10.4514677292 13.8552063958 72.4115352952
234 13 2 10.8685918801 13.5030671296 73.2921347451
235 14 1 10.3638973287 37.4043257704 20.5536878962
236 14 1 5.30517079827 39.058308984 19.0732769799
237 14 2 10.7553514622 37.4758850796 20.1676509619
238 14 2 11.3319060753 37.500179977 19.3071600862
239 14 2 11.657080951 37.3949638077 18.3290798905
240 14 2 11.6961281066 37.1866927162 17.3149060971
241 14 2 11.4403793366 36.9112160276 16.3494242631
242 14 2 10.908036296 36.6105086774 15.5129818037
243 14 2 10.1425114685 36.3288453087 14.87416454
244 14 2 9.20847123427 36.1087647564 14.4835452848
245 14 2 8.18594170249 35.9871927465 14.3690742656
246 14 2 7.16301454527 35.9920762145 14.5335315364
247 14 2 6.22781767722 36.139836017 14.9542735832
248 14 2 5.46048263156 36.4338702147 15.5852972194
249 14 2 4.92584078508 36.8642443482 16.3614326537
250 14 2 4.66751415139 37.4085969372 17.2042835423
251 14 2 4.70393935097 38.0341776699 18.0293726059
252 14 2 5.02668716251 38.7008325063 18.7538415082
253 15 1 75.3450891296 27.7306733671 76.0146944061
254 15 1 74.0933002923 23.7862673261 72.3550937786
255 15 2 75.0952349726 27.6803069372 76.5070537373
256 15 2 74.4340957308 27.5641839032 77.296268762
257 15 2 73.5746642406 27.4128271509 77.8547655465
258 15 2 72.5956141271 27.2210011728 78.1342537942
259 15 2 71.5865219332 26.987159123 78.1118740904
260 15 2 70.6397024571 26.7135838084 77.7922814776
261 15 2 69.8417945053 26.4061796165 77.2072211606
262 15 2 69.2658639968 26.0739343469 76.4126350159
263 15 2 68.9647442 25.7280999969 75.483562639
264 15 2 68.9662201213 25.3811671719 74.5073016863
265 15 2 69.2704959763 25.0457266008 73.5754509265
266 15 2 69.8501765758 24.733321524 72.7755612581
267 15 2 70.6527643245 24.4533955583 72.1831556787
268 15 2 71.605444236 24.2124319361 71.8548455658
269 15 2 72.6217208244 24.0133625766 71.8231707009
270 15 2 73.6093019369 23.8553008488 72.0936333558
271 16 1 84.7357402389 81.7464331323 75.7521848326
272 16 1 87.4876536644 84.9243128334 79.3363226878
273 16 2 84.190558945 81.7075846966 75.8451888319
274 16 2 83.2399694816 81.5833157407 76.2381098289
275 16 2 82.4504548329 81.4171474998 76.8881134799
276 16 2 81.889693542 81.2420994404 77.7415506262
277 16 2 81.6045138953 81.0920004002 78.7262296899
278 16 2 81.6166256484 80.998405181 79.7579967428
279 16 2 81.9206412408 80.9877184119 80.7484059126
280 16 2 82.4845668571 81.0787878386 81.6127809875
281 16 2 83.2527185777 81.2811864016 82.2779334264
282 16 2 84.1507978198 81.5943396879 82.6888332991
283 16 2 85.092663454 82.0075782877 82.8136251173
284 16 2 85.9881833384 82.5011102824 82.6465313772
285 16 2 86.7514496224 83.0478252249 82.2083791632
286 16 2 87.3086090174 83.6157651847 81.5447018156
287 16 2 87.604594327 84.1710376276 80.7215886874
288 16 2 87.6081436746 84.6809046299 79.8196612772
289 17 1 74.2126016417 92.2619511407 84.2130943037
290 17 1 70.7333488075 88.359409483 82.4290092756
291 17 2 74.1707577349 92.7492645161 83.9520265929
292 17 2 74.1082257412 93.5271913956 83.2705799471
293 17 2 74.0549958868 94.0718970463 82.3908570657
294 17 2 73.9969332023 94.3351611225 81.3904717589
295 17 2 73.9203432177 94.294415926 80.3580358944
296 17 2 73.8132201771 93.9548033913 79.3850826624
297 17 2 73.666341331 93.3487064117 78.5577235704
298 17 2 73.4741075654 92.5327972258 77.948799609
299 17 2 73.2350537457 91.5828718936 77.6112419905
300 17 2 72.9519822604 90.586941689 77.5732476104
301 17 2 72.6317075904 89.6372111068 77.8357089756
302 17 2 72.2844351875 88.8216736699 78.372132855
303 17 2 71.9228312748 88.2160915546 79.1310550665
304 17 2 71.5608683539 87.8770900706 80.0407312995
305 17 2 71.2125516494 87.8369964159 81.0156764177
306 17 2 70.8906425696 88.1008931386 81.9644561999
307 18 1 15.7094235053 65.7464991314 42.4657785851
308 18 1 14.7508057947 70.8283815787 44.4083320435
309 18 2 16.089090021 65.4566169203 42.7472092667
310 18 2 16.9283930409 65.1091258123 43.2454766466
311 18 2 17.8653085644 65.0455315826 43.683192407
312 18 2 18.8106501747 65.2767968439 44.0385733715
313 18 2 19.6744634397 65.7870085544 44.2973409603
314 18 2 20.3742250179 66.5348284489 44.4540226444
315 18 2 20.8423644409 67.4572609115 44.5124507523
316 18 2 21.0324229804 68.4753948572 44.4854131633
317 18 2 20.9232882376 69.5015962669 44.3934877266
318 18 2 20.5211184814 70.4474957934 44.2631666452
319 18 2 19.8587813394 71.2320433916 44.1244417825
320 18 2 18.9928580006 71.7888958136 44.0080709842
321 18 2 17.9984859921 72.0724636181 43.9427745828
322 18 2 16.9625105936 72.0620665262 43.9526176158
323 18 2 15.9755691227 71.7638183736 44.0548163623
324 18 2 15.1238295857 71.2100698511 44.2581691249
325 19 1 16.0255779575 62.4869831899 3.05074507009
326 19 1 18.4239509912 63.3821607652 7.94609541112
327 19 2 15.5513882854 62.2004869186 3.0718550071
328 19 2 14.7923369662 61.5160164198 3.24153482963
329 19 2 14.2520676162 60.6992304142 3.57979458451
330 19 2 13.9717503052 59.8315723796 4.07177197345
331 19 2 13.9688611696 58.9991226428 4.68859374666
332 19 2 14.2355895088 58.2847523889 5.39000742239
333 19 2 14.7395497102 57.7605701733 6.12805019308
334 19 2 15.4267331111 57.4813494202 6.85142060708
335 19 2 16.2264307435 57.4795359712 7.51015455882
336 19 2 17.0576782685 57.7622907337 8.06017938349
337 19 2 17.8366356583 58.310836983 8.4673309627
338 19 2 18.4842289914 59.0821718109 8.71046769249
339 19 2 18.9333578289 60.0129857257 8.78339748405
340 19 2 19.1350112403 61.0254331432 8.69544215607
341 19 2 19.0627350187 62.0342278035 8.47058777589
342 19 2 18.7150429111 62.9544163859 8.14529839355
343 20 1 10.5910838006 71.9853759377 46.7378146785
344 20 1 7.38657794743 68.7814488196 49.8975590227
345 20 2 10.5533873009 72.5286082198 46.8420224016
346 20 2 10.2518316296 73.5040615201 47.0181049029
347 20 2 9.6736741087 74.3499291321 47.1720265555
348 20 2 8.86998763119 74.9893064939 47.3089011198
349 20 2 7.91240145154 75.3641100777 47.4353961526
350 20 2 6.88657237078 75.4403715485 47.5591252772
351 20 2 5.88437734795 75.2113338872 47.6879542224
352 20 2 4.99553916091 74.6980672744 47.8292838816
353 20 2 4.2994484149 73.9475485999 47.9893757417
354 20 2 3.85792730106 73.0283796448 48.172781165
355 20 2 3.709594669 72.0245342128 48.3819265451
356 20 2 3.8663460218 71.0277041418 48.6168921471
357 20 2 4.31226927278 70.1289418384 48.8754047919
358 20 2 5.0050950896 69.4103610945 49.1530450505
359 20 2 5.88004963095 68.9376526342 49.4436500629
360 20 2 6.8557585091 68.7540965801 49.7398752666
361 21 1 89.096119029 51.6455976732 50.5541938316
362 21 1 91.8262317949 46.8431642753 50.5208950997
363 21 2 88.9955907577 51.8536532504 51.0581665804
364 21 2 88.7248202728 52.0265938002 52.0431665408
365 21 2 88.3820283747 51.9022574128 53.0129521813
366 21 2 88.0146626518 51.4875735496 53.8884690175
367 21 2 87.6724105309 50.8159360688 54.5992549144
368 21 2 87.4026704014 49.9441594638 55.0898625221
369 21 2 87.2462313782 48.9473003744 55.324913153
370 21 2 87.2335554833 47.9118163745 55.2923214551
371 21 2 87.3820011137 46.9276855953 55.0043969591
372 21 2 87.6942408702 46.0802054593 54.4967220979
373 21 2 88.1580179567 45.4422180479 53.8249089631
374 21 2 88.7472633543 45.0674707408 53.0595304107
375 21 2 89.4244719433 44.9857172857 52.279687535
376 21 2 90.1441209938 45.2000058238 51.5657998144
377 21 2 90.8568194416 45.6864010598 50.9922750911
378 21 2 91.513809751 46.3961659003 50.6207274956
379 22 1 90.191942552 20.9081130504 71.4425305906
380 22 1 87.0065929687 17.1466060402 73.9370453942
381 22 2 90.1115253639 21.4304317878 71.610154576
382 22 2 89.7350039202 22.3562919292 71.8830366241
383 22 2 89.093141129 23.140778915 72.0976114071
384 22 2 88.241554014 23.7100337862 72.2531693977
385 22 2 87.2549754105 24.0098154155 72.3543802913
386 22 2 86.2204422671 24.0104444416 72.4108673764
387 22 2 85.2293624607 23.7095084633 72.4363303966
388 22 2 84.3691832125 23.1320819235 72.4472968566
389 22 2 83.7154205077 22.3284406409 72.4616155833
390 22 2 83.3247760154 21.3694793033 72.4968298539
391 22 2 83.2299688828 20.3402496065 72.5685783723
392 22 2 83.4367534725 19.3322080192 72.6891698436
393 22 2 83.9233948676 18.4348797708 72.8664610682
394 22 2 84.6426499516 17.7276988656 73.1031408154
395 22 2 85.5260734916 17.2727678858 73.3964847495
396 22 2 86.4902567392 17.1091975073 73.7386037458
397 23 1 46.7619174482 27.319243248 86.8849393898
398 23 1 44.8687614298 23.0182886664 89.789374109
399 23 2 46.9416319537 27.7460330309 87.1897914291
400 23 2 47.0696246834 28.519626067 87.867007559
401 23 2 46.9252700714 29.1924722018 88.6415331145
402 23 2 46.5302921119 29.6942361499 89.4574224227
403 23 2 45.9292584475 29.9701763098 90.2549596152
404 23 2 45.1855181472 29.986134315 90.9761015701
405 23 2 44.375427609 29.7316484775 91.569768387
406 23 2 43.5813908773 29.2209073425 91.9964991838
407 23 2 42.8843487351 28.491456441 92.2320488504
408 23 2 42.3564011679 27.6007761143 92.2695979256
409 23 2 42.0542356424 26.6210423351 92.120374173
410 23 2 42.0139601958 25.6325480603 91.8126292003
411 23 2 42.2478122848 24.7163847424 91.3890634007
412 23 2 42.7430433735 23.9470510606 90.9029339261
413 23 2 43.463080929 23.3856625652 90.4132004404
414 23 2 44.3508619098 23.0743811585 89.9791511031
415 24 1 11.7653969933 77.3280623078 73.2403515436
416 24 1 7.21531281154 74.5557354143 74.6994363923
417 24 2 11.7824112024 77.8553373045 73.4108601436
418 24 2 11.5996513454 78.8505545063 73.6335517847
419 24 2 11.1468980089 79.7775906841 73.7287796823
420 24 2 10.4575021615 80.5506580511 73.705322853
421 24 2 9.58638410457 81.0980026663 73.5827781093
422 24 2 8.60502763284 81.3684446141 73.389773862
423 24 2 7.59496447806 81.3360429168 73.1613607176
424 24 2 6.64034290941 81.0024599858 72.9358167086
425 24 2 5.82025784365 80.3968100967 72.7511583539
426 24 2 5.20154155489 79.5730057014 72.6416755538
427 24 2 4.83267209143 78.6048434519 72.6348061582
428 24 2 4.73935463124 77.5792778325 72.7486350791
429 24 2 4.92217852364 76.5884954917 72.9902458997
430 24 2 5.35656357177 75.7215126748 73.3550752246
431 24 2 5.99500045175 75.0560616314 73.8273286209
432 24 2 6.77138106064 74.6515055288 74.381420239
433 25 1 13.5184065346 23.7086440695 62.4843743254
434 25 1 11.6331289918 28.9012896169 62.4966977594
435 25 2 13.8615364156 23.5857077317 62.066606292
436 25 2 14.3325024388 23.4502435274 61.1537588428
437 25 2 14.5536433102 23.4614803751 60.1416222614
438 25 2 14.5149667028 23.6346197625 59.1208495719
439 25 2 14.2301619586 23.9701061935 58.1828809564
440 25 2 13.7353523413 24.4535866727 57.4116092274
441 25 2 13.0858024975 25.057218943 56.8757332213
442 25 2 12.350881232 25.7422092327 56.6224960838
443 25 2 11.6077387264 26.4623482038 56.673379183
444 25 2 10.9342745062 27.1682228101 57.0221441403
445 25 2 10.4020371078 27.8117201643 57.635401442
446 25 2 10.0697026199 28.3504128987 58.4556538039
447 25 2 9.97772651539 28.7514263065 59.4065368957
448 25 2 10.1446562429 28.9944347837 60.3997797447
449 25 2 10.5654406764 29.0735144535 61.3432504001
450 25 2 11.2118905121 28.9976831115 62.1493535131
451 26 1 19.8391822552 11.8889283509 29.4229806893
452 26 1 24.8935909534 10.7859922805 31.3606276638
453 26 2 19.5943120867 11.4688302341 29.1566392527
454 26 2 19.3400839396 10.6752262728 28.5410007117
455 26 2 19.3744325925 9.92154410433 27.8309067953
456 26 2 19.6997669256 9.26141278828 27.1016371411
457 26 2 20.291973252 8.73993447417 26.4302192042
458 26 2 21.1026132161 8.38957346098 25.8884074101
459 26 2 22.0633388198 8.22719716305 25.5361429308
460 26 2 23.0921221604 8.25253869038 25.4160902073
461 26 2 24.100732054 8.4482211749 25.5497481996
462 26 2 25.0027760728 8.7813416256 25.9354908141
463 26 2 25.7215749835 9.20646994818 26.5487151176
464 26 2 26.1971518547 9.66978977672 27.3440838291
465 26 2 26.3916987938 10.1140036916 28.2596576915
466 26 2 26.2930230354 10.4835557263 29.2225410694
467 26 2 25.9156582793 10.7296951449 30.1555261918
468 26 2 25.2995399823 10.8149199417 30.9841304335
469 27 1 61.2495291143 85.2487742014 44.8525629645
470 27 1 57.9293219279 84.1496066809 40.5763443005
471 27 2 61.5979210314 84.839637565 44.9889883028
472 27 2 62.0538246665 83.9437738372 45.2400462002
473 27 2 62.2244215545 82.9439269634 45.4513586274
474 27 2 62.099067929 81.9243684258 45.5864025763
475 27 2 61.6940951216 80.9711663721 45.6156067067
476 27 2 61.0513210052 80.1643407338 45.519046695
477 27 2 60.2342384064 79.5705696233 45.288261283
478 27 2 59.322227904 79.2371118025 44.9270234991
479 27 2 58.4033225017 79.1874991725 44.4509967565
480 27 2 57.5661836546 79.4193919038 43.8863071754
481 27 2 56.892020015 79.9047917058 43.2671622566
482 27 2 56.4471854807 80.5925937959 42.6327329595
483 27 2 56.2771312143 81.413244964 42.0235833736
484 27 2 56.4022628916 82.2850831616 41.4779734105
485 27 2 56.8160807785 83.121780779 41.0283715148
486 27 2 57.4857721644 83.8402131769 40.6984952524
487 28 1 1.98376528955 8.8417018046 40.7024504513
488 28 1 2.49789761138 4.77803321651 36.9956652372
489 28 2 2.46036669323 9.01558545322 40.9260509137
490 28 2 3.3857618494 9.11102983718 41.3821037458
491 28 2 4.29191986329 8.9008240294 41.8383286722
492 28 2 5.10813168321 8.40337122585 42.2380648157
493 28 2 5.77188661265 7.66325641841 42.5298001009
494 28 2 6.2345699932 6.74718259208 42.6718664419
495 28 2 6.46589430069 5.73789092608 42.636237677
496 28 2 6.45665977211 4.7266191566 42.4110840785
497 28 2 6.2195929394 3.80478550097 42.0018506007
498 28 2 5.78818664006 3.05565613147 41.430760587
499 28 2 5.21364723458 2.54675568631 40.7347901712
500 28 2 4.56022728349 2.32371257933 39.9622980022
501 28 2 3.89936909822 2.406100092 39.1686174822
502 28 2 3.30319296538 2.78565232119 38.4110132747
503 28 2 2.83792357539 3.42701759406 37.7434617841
504 28 2 2.55785381891 4.27098067866 37.21173135
505 29 1 50.828537311 58.1006233273 29.4468435031
506 29 1 47.7885905734 54.1825376362 31.8810414021
507 29 2 50.5535797231 58.5654747189 29.3215714128
508 29 2 49.8866947494 59.2852112126 28.9888646008
509 29 2 49.0652104722 59.7557454425 28.567900075
510 29 2 48.1523591366 59.9360403141 28.1122179384
511 29 2 47.2197008508 59.8115132746 27.678522712
512 29 2 46.3406010734 59.3953654737 27.3215148682
513 29 2 45.5835435485 58.7273785141 27.0889050299
514 29 2 45.0058881947 57.8702884647 27.0170652739
515 29 2 44.6486429023 56.9040676355 27.1277139139
516 29 2 44.5327257738 55.9186353156 27.4259359341
517 29 2 44.6570584944 55.0056618699 27.8997195063
518 29 2 44.9986646176 54.2502132308 28.5210508361
519 29 2 45.5147638072 53.7229973654 29.2484675454
520 29 2 46.1466711503 53.4739194337 30.0308378572
521 29 2 46.8251461302 53.5275330662 30.8120211207
522 29 2 47.4767037148 53.8808023667 31.5359848813
523 30 1 29.8449592486 12.3317039226 71.9553726115
524 30 1 33.4679759722 8.98726692558 69.4640914039
525 30 2 30.0237642009 12.8500254379 72.037550369
526 30 2 30.5452843731 13.7107454126 72.2837775938
527 30 2 31.2760906261 14.3653703906 72.6167015639
528 30 2 32.1594984147 14.7575340011 72.9898615739
529 30 2 33.1249139712 14.8547925254 73.3531295105
530 30 2 34.0942687396 14.6515820553 73.6572788967
531 30 2 34.9891351148 14.1697256284 73.8584717532
532 30 2 35.7378749099 13.4564441164 73.9222543134
533 30 2 36.2821689852 12.5800521689 73.8266973917
534 30 2 36.5823328818 11.623731516 73.5643951707
535 30 2 36.6209339542 10.6779491755 73.1431402209
536 30 2 36.4043803092 9.83221162604 72.5852132298
537 30 2 35.9623367241 9.16690653124 71.9253521755
538 30 2 35.3450207815 8.74597561857 71.2075860542
539 30 2 34.6186256711 8.61108656198 70.4812217535
540 30 2 33.8592868571 8.77783508477 69.7963498627
541 31 1 53.0462576533 22.7812250592 32.5410401176
542 31 1 49.3461328214 20.1649667252 35.7005115323
543 31 2 53.1021335082 23.3226659968 32.6464022929
544 31 2 52.9720259099 24.334902703 32.8250048532
545 31 2 52.5472029194 25.2667914941 32.9817170703
546 31 2 51.8648480032 26.0338181976 33.1214017712
547 31 2 50.9856179746 26.5664953798 33.2504737954
548 31 2 49.9881142869 26.8166959394 33.3763152997
549 31 2 48.9617187215 26.7620397644 33.5066028939
550 31 2 47.9984464774 26.4079336191 33.6486079387
551 31 2 47.1845592313 25.7870783326 33.8085337806
552 31 2 46.5927026166 24.9564882049 33.9909503332
553 31 2 46.2752847683 23.9922943064 34.1983775419
554 31 2 46.2596994612 22.9828053342 34.4310556978
555 31 2 46.5458292407 22.02045851 34.6869235355
556 31 2 47.1060561286 21.1933941749 34.9618061123
557 31 2 47.8877789277 20.5774220329 35.2497953426
558 31 2 48.8182076806 20.2291112983 35.5437885044
559 32 1 14.6609220429 50.5898355711 91.1124618039
560 32 1 18.6338285463 46.7872874828 90.5884074054
561 32 2 14.1436983422 50.3906263672 91.0991605051
562 32 2 13.2521556757 49.9109391326 90.8789291677
563 32 2 12.5309829496 49.3167037672 90.431442586
564 32 2 12.0478228038 48.6456250042 89.8072154009
565 32 2 11.8486236676 47.9424116472 89.0728716873
566 32 2 11.9534516832 47.2547014818 88.3050723471
567 32 2 12.3546617307 46.6287192196 87.5835276732
568 32 2 13.0175942599 46.1050632383 86.9837319696
569 32 2 13.8837344162 45.715005149 86.5700824465
570 32 2 14.8760455126 45.4776394719 86.3900095878
571 32 2 15.9059907183 45.3981432218 86.4696539884
572 32 2 16.8816029541 45.4673040372 86.8114837093
573 32 2 17.7158674457 45.6623598627 87.3940693204
574 32 2 18.3346528879 45.9490736489 88.1740371355
575 32 2 18.6834683148 46.2848539684 89.0900226081
576 32 2 18.7324298061 46.6226371103 90.068263546
577 33 1 58.2872079624 15.6163771994 82.2353854882
578 33 1 54.0615822384 17.1754045022 85.4340589899
579 33 2 58.2946242968 15.077727861 82.1042997291
580 33 2 58.2817659298 14.0418160991 82.0912041111
581 33 2 58.2195627831 13.0480034315 82.3774158535
582 33 2 58.0949960092 12.1832281045 82.9342791796
583 33 2 57.9007310385 11.5226669557 83.708469144
584 33 2 57.6357861058 11.1228832462 84.6268520594
585 33 2 57.3056217353 11.0166710703 85.6031514363
586 33 2 56.921643029 11.210066262 86.5458118546
587 33 2 56.5001601216 11.6817962443 87.3663439951
588 33 2 56.0609015553 12.3852189681 87.9873902051
589 33 2 55.6252160765 13.2525742099 88.3497754409
590 33 2 55.2141267538 14.2011597357 88.4179009156
591 33 2 54.8464147823 15.1408693879 88.1829888328
592 33 2 54.5369076272 15.9824060213 87.6638824596
593 33 2 54.2951275404 16.6454206989 86.9053286131