LAMMPS input file for bananas

648 atoms

2 atom types

0 67.4746132241 xlo xhi
0 67.4746132241 ylo yhi
0 67.4746132241 zlo zhi

Masses

 1 1
 2 1

Atoms

1 1 1 62.4760104914 30.196184955 34.5815507482
2 1 1 65.9863947291 27.7292927553 31.127816493
3 1 2 62.5472168931 30.0729903613 35.1173991335
4 1 2 62.6777445853 29.6210253532 36.0401062507
5 1 2 62.8105919105 28.9173647369 36.7883786586
6 1 2 62.9526535077 28.025429086 37.2952983448
7 1 2 63.109984198 27.0257989525 37.515944943
8 1 2 63.2872471294 26.0088705024 37.4314899159
9 1 2 63.4872887627 25.0666165245 37.0509126477
10 1 2 63.7108794363 24.2842037413 36.4101820347
11 1 2 63.956643155 23.7322304466 35.5689781667
12 1 2 64.2211830026 23.4602919545 34.6052528963
13 1 2 64.4993907473 23.4924603268 33.6081250622
14 1 2 64.7849124224 23.8250903699 32.6697579173
15 1 2 65.0707274465 24.4271518685 31.8769590809
16 1 2 65.3497885014 25.2430577775 31.3032686188
17 1 2 65.6156638471 26.1977306002 31.0022563709
18 1 2 65.8631235303 27.2034451867 31.0026394273
19 2 1 39.9233597951 31.2903900327 54.4533114684
20 2 1 40.4341945997 27.0035716982 57.87367275
21 2 2 39.7533317248 31.7618242385 54.6904211404
22 2 2 39.2669984802 32.5051856475 55.2229547656
23 2 2 38.6089316691 33.0105195373 55.8428612126
24 2 2 37.8483385345 33.2312276 56.5103073196
25 2 2 37.0637708907 33.1466532205 57.1811270106
26 2 2 36.3359656644 32.763964185 57.8108467305
27 2 2 35.7404862768 32.117499387 58.3587389051
28 2 2 35.3408355564 31.265639072 58.7915339796
29 2 2 35.1826678912 30.2854838788 59.0864527109
30 2 2 35.2896281443 29.2658276448 59.2332823393
31 2 2 35.6611965869 28.2990644563 59.2353074115
32 2 2 36.2727362678 27.4727675612 59.1090104165
33 2 2 37.0777385029 26.8617076679 58.8825695204
34 2 2 38.0120618224 26.5210381076 58.5932903188
35 2 2 38.9997780264 26.4812679867 58.2842056883
36 2 2 39.9600925198 26.7454814904 58.0001536345
37 3 1 31.7406119615 46.982337946 24.6097718348
38 3 1 31.2656091642 46.8643354636 30.0958526475
39 3 2 31.2911554785 47.1603106179 24.3383029608
40 3 2 30.3406867764 47.3347253684 23.9656274824
41 3 2 29.3177594021 47.3021530221 23.8067032856
42 3 2 28.3094875471 47.07952173 23.8874587511
43 3 2 27.4016496526 46.7010822126 24.2119771019
44 3 2 26.6708702928 46.2152860423 24.7621242453
45 3 2 26.1776363707 45.680369614 25.4992015709
46 3 2 25.9607841511 45.1590462975 26.367473064
47 3 2 26.0339596014 44.7127905439 27.2992452608
48 3 2 26.3843746557 44.3962349101 28.221037044
49 3 2 26.9739727585 44.2521906767 29.0602769424
50 3 2 27.7428974598 44.3077458928 29.7519175231
51 3 2 28.6149479192 44.5717964862 30.2443640191
52 3 2 29.5045240908 45.0342354604 30.5041768385
53 3 2 30.3244285801 45.6668740783 30.5191193541
54 3 2 30.9938140885 46.4260110721 30.299273188
55 4 1 20.8184281437 10.0836429849 14.0642571371
56 4 1 19.9401565703 5.08310269049 11.9288717541
57 4 2 21.1876751421 10.1016861932 14.4774300409
58 4 2 21.7484190041 9.95906169017 15.3364543965
59 4 2 22.1079760783 9.58886353934 16.2344356383
60 4 2 22.2466201268 9.01228016281 17.083569143
61 4 2 22.1647596194 8.26931058101 17.8005024237
62 4 2 21.8829005044 7.41511877623 18.3139321374
63 4 2 21.4397772317 6.51500587381 18.5711028963
64 4 2 20.8888223738 5.63845839232 18.542615559
65 4 2 20.2932966129 4.85281502377 18.2251067613
66 4 2 19.7205229632 4.21712917354 17.6415554635
67 4 2 19.2357507402 3.7767866473 16.8391885758
68 4 2 18.8962085326 3.55936904608 15.8851765491
69 4 2 18.7458882088 3.57213989236 14.8605112492
70 4 2 18.81153536 3.80138260984 13.8526241032
71 4 2 19.1002116226 4.21365069531 12.9474173245
72 4 2 19.5986510587 4.75881613812 12.2214345151
73 5 1 39.8504531732 55.1920762574 42.8349417079
74 5 1 42.1530526419 60.19533284 42.880703943
75 5 2 40.2043199658 54.7694801656 42.8947044718
76 5 2 40.9829343554 54.0891822081 42.834267791
77 5 2 41.8616842654 53.6108355658 42.5665340491
78 5 2 42.7727392302 53.3850778488 42.1286863866
79 5 2 43.6453243996 53.4395249184 41.5734126615
80 5 2 44.4121711818 53.7762538904 40.9641033122
81 5 2 45.0156483138 54.371613821 40.3690737539
82 5 2 45.4130145563 55.1783813273 39.8553378966
83 5 2 45.5803142644 56.1300646757 39.482500287
84 5 2 45.5145607805 57.1469640469 39.2973235624
85 5 2 45.2340086475 58.1434356283 39.3294663571
86 5 2 44.7764898326 59.0356974603 39.5887801212
87 5 2 44.1959656026 59.7494655874 40.0644112284
88 5 2 43.5576083248 60.2267245318 40.7257902098
89 5 2 42.931861452 60.4310150058 41.525417951
90 5 2 42.3880190853 60.3507569266 42.4031949113
91 6 1 37.552146578 52.7282835559 33.4235387689
92 6 1 34.8783785636 47.9138388628 33.330148034
93 6 2 38.0018773998 52.7541464982 33.1003452544
94 6 2 38.8982294664 52.6011280822 32.604526126
95 6 2 39.7906494574 52.1912664111 32.2754391445
96 6 2 40.5921047836 51.5520753796 32.1277825958
97 6 2 41.2238536617 50.7319706814 32.1597186257
98 6 2 41.6226218873 49.7958570503 32.353040748
99 6 2 41.7463698454 48.8192126392 32.6748332405
100 6 2 41.5781241325 47.8812097036 33.0804711876
101 6 2 41.1275245667 47.0574985936 33.5176877353
102 6 2 40.4299455835 46.4133127428 33.9313378567
103 6 2 39.5432720993 45.9975230883 34.2684244431
104 6 2 38.5426236977 45.83818382 34.4829286271
105 6 2 37.5135079945 45.939975433 34.5400040869
106 6 2 36.5440272051 46.2837781333 34.4191530494
107 6 2 35.7168482311 46.8284144754 34.1160945219
108 6 2 35.1016681395 47.514402404 33.6431544753
109 7 1 35.2883301058 25.7072311547 3.72221211622
110 7 1 38.7487825119 22.1014733039 1.40695524207
111 7 2 35.5308701475 26.1306757248 3.98536563757
112 7 2 36.1089140047 26.7511034633 4.58003612758
113 7 2 36.8148458424 27.1038755377 5.25078971504
114 7 2 37.5990380253 27.1605951172 5.9249735035
115 7 2 38.4047300243 26.9198485258 6.5296219572
116 7 2 39.1732017493 26.4073340895 6.99810720941
117 7 2 39.8491254831 25.6735199103 7.27621173567
118 7 2 40.3856086234 24.7890440443 7.32706990941
119 7 2 40.7484676218 23.8382763276 7.13452805107
120 7 2 40.9193435803 22.9116286439 6.70461672524
121 7 2 40.8973755386 22.0973145011 6.06500109604
122 7 2 40.6992789447 21.4733089753 5.26245943709
123 7 2 40.3578221569 21.1002418167 4.35861961258
124 7 2 39.9188398321 21.015871464 3.42434211998
125 7 2 39.4370554113 21.2316436212 2.53326164153
126 7 2 38.9710934529 21.7316480605 1.75507574777
127 8 1 58.4112866224 32.327306676 55.5926346418
128 8 1 60.3965470893 27.1955173998 55.8378174914
129 8 2 58.7778492436 32.7145613254 55.4408241254
130 8 2 59.595400018 33.3397278736 55.3247388575
131 8 2 60.5278061044 33.7796290127 55.4237547594
132 8 2 61.5001278033 33.984940907 55.7155351751
133 8 2 62.4337873808 33.9277209216 56.1601742847
134 8 2 63.2537308902 33.603954403 56.7038342462
135 8 2 63.8952688249 33.0339205862 57.2836521463
136 8 2 64.3099721231 32.2603442824 57.833469523
137 8 2 64.4700861451 31.3445018049 58.2898622567
138 8 2 64.3710603181 30.3606360531 58.5979212432
139 8 2 64.0319628899 29.3891897818 58.7162569826
140 8 2 63.4937429887 28.5094737951 58.620771948
141 8 2 62.8154983911 27.7924383106 58.3068569102
142 8 2 62.0690891646 27.2942063336 57.7898110372
143 8 2 61.3325881153 27.0509584297 57.1034474799
144 8 2 60.683164987 27.0756351145 56.2970115354
145 9 1 22.7311706831 55.8885870796 42.7923865141
146 9 1 18.3766370153 59.1042394172 41.7754049475
147 9 2 22.7580691751 55.4256333544 42.4885262319
148 9 2 22.5856943022 54.5333073767 41.9917974088
149 9 2 22.1335175122 53.6821991208 41.6125228928
150 9 2 21.4365494169 52.956040937 41.3683343647
151 9 2 20.5521116775 52.4271768328 41.2645513435
152 9 2 19.5546125278 52.1499688132 41.293696349
153 9 2 18.5287649741 52.1558421566 41.4361764226
154 9 2 17.5618657851 52.4504212157 41.6620688915
155 9 2 16.7358389907 53.0130167969 41.9338486147
156 9 2 16.1197690673 53.7985118379 42.2098081427
157 9 2 15.7636043625 54.7414735191 42.4478590655
158 9 2 15.6936046448 55.7621170162 42.6093680825
159 9 2 15.9099477062 56.7735773397 42.662678163
160 9 2 16.3867131578 57.6898264839 42.5859938676
161 9 2 17.0742448949 58.4335142888 42.369367853
162 9 2 17.9036769114 58.9430183779 42.0156075041
163 10 1 54.1698828435 44.2099487432 55.8999874157
164 10 1 50.0464010657 40.5613318271 56.0453406219
165 10 2 54.4193374587 44.3028271844 56.3863275659
166 10 2 54.6650372534 44.5066603781 57.3716102214
167 10 2 54.6057775637 44.7186842951 58.3836539057
168 10 2 54.2471580392 44.9021015634 59.3378281106
169 10 2 53.6220629258 45.0227221113 60.1547767343
170 10 2 52.7876638925 45.0520793574 60.7676508457
171 10 2 51.8202092255 44.9700247447 61.1282015063
172 10 2 50.8080743198 44.7665641432 61.2111773305
173 10 2 49.8437068678 44.4427687465 61.0166259755
174 10 2 49.0152008861 44.0106774395 60.5698897986
175 10 2 48.3982675496 43.4921995371 59.9192960743
176 10 2 48.0493346373 42.9171179 59.1317522949
177 10 2 48.0004035269 42.3203744312 58.2866480114
178 10 2 48.2561324886 41.7388853613 57.46861902
179 10 2 48.7934121161 41.2081765868 56.7598333898
180 10 2 49.5634715899 40.7591457285 56.2325024063
181 11 1 64.5213743936 62.3826978033 16.246712721
182 11 1 60.9298268984 59.4222570163 19.1917444463
183 11 2 64.4501693121 62.3606039054 15.6973290229
184 11 2 64.3135796265 62.0869931306 14.7077944491
185 11 2 64.1672968604 61.5343740607 13.8441326015
186 11 2 64.0056466792 60.7531380306 13.1836496302
187 11 2 63.8243553826 59.8145132438 12.7851333239
188 11 2 63.6209394232 58.8040728097 12.6834950057
189 11 2 63.3949317653 57.8139353417 12.8865876056
190 11 2 63.1479244511 56.9343689771 13.3744899196
191 11 2 62.8834234981 56.2455640549 14.101322291
192 11 2 62.6065293485 55.810324317 14.9994282266
193 11 2 62.3234719997 55.6683427768 15.9855408219
194 11 2 62.0410431824 55.8325839738 16.9683719689
195 11 2 61.7659773409 56.2881023443 17.856932641
196 11 2 61.5043378348 56.9934044076 18.5688259191
197 11 2 61.2609643053 57.8842306117 19.0377569059
198 11 2 61.0390315749 58.8794121511 19.2195750511
199 12 1 28.9932454272 48.1122825008 15.2834918823
200 12 1 31.3017021148 43.8355333908 17.8752248351
201 12 2 28.5988119432 48.3762610831 15.5700547662
202 12 2 27.7763222552 48.6523964978 16.1357032586
203 12 2 26.9149354213 48.6248978331 16.710120195
204 12 2 26.1003223118 48.2958639287 17.2586094317
205 12 2 25.4138906931 47.6948764939 17.7488379571
206 12 2 24.9253654672 46.8763039379 18.1537828241
207 12 2 24.6864337255 45.9143460617 18.4541941062
208 12 2 24.7260338243 44.8962712555 18.6403493965
209 12 2 25.0477178525 43.9144625825 18.7129399384
210 12 2 25.6293278828 43.0579976969 18.6830076236
211 12 2 26.4250155148 42.4045300258 18.5709385993
212 12 2 27.3694206424 42.013211192 18.4046052103
213 12 2 28.3836285797 41.9192997493 18.2168256267
214 12 2 29.3823625929 42.1309476065 18.0423726918
215 12 2 30.2817562905 42.6284570376 17.9148046164
216 12 2 31.0069974696 43.3660759936 17.8634063779
217 13 1 60.2442837565 35.0880953969 53.6086820772
218 13 1 60.9104554018 30.9384903646 57.1686860577
219 13 2 60.6023055866 35.5074828417 53.6662606498
220 13 2 61.2067559855 36.2795450603 53.9998141192
221 13 2 61.6928966077 36.9670587236 54.6028817184
222 13 2 62.0325441256 37.4980970667 55.424670081
223 13 2 62.2108670538 37.8149949773 56.3944509421
224 13 2 62.2277375373 37.8796047753 57.4280075356
225 13 2 62.0977430042 37.6767731125 58.4353103743
226 13 2 61.8488566222 37.2157220959 59.3287228211
227 13 2 61.5198877359 36.5292087567 60.0309885671
228 13 2 61.156944661 35.6705394706 60.4822730146
229 13 2 60.8092322275 34.7087114477 60.6456167905
230 13 2 60.524567097 33.7221241098 60.51030434
231 13 2 60.3450196018 32.7914335203 60.0928405755
232 13 2 60.303079322 31.9922011374 59.4354465672
233 13 2 60.418693884 31.388006905 58.6022113822
234 13 2 60.6974508702 31.0246543766 57.673250805
235 14 1 38.8941066666 8.47186939921 49.3911454678
236 14 1 40.5734677505 4.49433019662 52.8110231219
237 14 2 38.7854114635 8.95920377472 49.6321253651
238 14 2 38.4537903226 9.73801232995 50.2289359919
239 14 2 37.9938926055 10.2846748329 50.9788376313
240 14 2 37.4614636662 10.5503502654 51.8265606169
241 14 2 36.918859582 10.5118076543 52.707919537
242 14 2 36.4293638251 10.1735434153 53.5556632952
243 14 2 36.0514194075 9.56737153578 54.3056045868
244 14 2 35.8333022019 8.74952394749 54.9024701311
245 14 2 35.8087209259 7.79552537189 55.3049384525
246 14 2 35.9937448243 6.79330975944 55.4894060493
247 14 2 36.3853390674 5.83520571296 55.4521386913
248 14 2 36.9616413547 5.00952136842 55.2096117691
249 14 2 37.6839545138 4.39249571387 54.7970086754
250 14 2 38.5002734825 4.04134992835 54.2650140799
251 14 2 39.3500252137 3.98907206373 53.675194369
252 14 2 40.1695894929 4.24141040997 53.094386292
253 15 1 63.6657803946 60.9298760201 25.6716383318
254 15 1 61.9371395274 58.948322413 30.5112541204
255 15 2 63.6148919539 61.4785193839 25.6101437987
256 15 2 63.2994481828 62.4641070013 25.5675932788
257 15 2 62.7276656006 63.3249011994 25.6368485915
258 15 2 61.9562115795 63.9886996785 25.8290166002
259 15 2 61.0599521742 64.401254948 26.1440015191
260 15 2 60.1251285945 64.5312186133 26.5705136428
261 15 2 59.2414969104 64.372998567 27.0870983259
262 15 2 58.4941474014 63.9472686714 27.6640914268
263 15 2 57.9557491613 63.2990844773 28.2663229908
264 15 2 57.6799268083 62.4937767197 28.8563227503
265 15 2 57.6963729686 61.6109968691 29.3977352828
266 15 2 58.0081419974 60.7374574463 29.8586335583
267 15 2 58.5913715952 59.9590287701 30.2144288697
268 15 2 59.3974576926 59.3529124673 30.450111924
269 15 2 60.3574843784 58.9806050728 30.5616208373
270 15 2 61.388505112 58.882293043 30.556211347
271 16 1 40.8624286012 23.0065808783 16.4512644519
272 16 1 36.6180021883 20.3892058251 18.7902443969
273 16 2 41.0089882701 23.4823825184 16.6952189853
274 16 2 41.0531403009 24.4194774437 17.1340833951
275 16 2 40.794319713 25.3402585351 17.5314149394
276 16 2 40.2538194446 26.1565320407 17.8694316475
277 16 2 39.4786056053 26.7896293586 18.1357576894
278 16 2 38.5370368377 27.1775771405 18.3245513478
279 16 2 37.5126338953 27.2807457374 18.4370374505
280 16 2 36.4964672989 27.0854611708 18.4813957359
281 16 2 35.5788568827 26.6052514216 18.472015326
282 16 2 34.8411397611 25.8796134477 18.4281832562
283 16 2 34.3482570076 24.970413307 18.3723265946
284 16 2 34.1428347219 23.9562474905 18.3279683684
285 16 2 34.241298953 22.9252793907 18.3175836013
286 16 2 34.6323785773 21.967203813 18.3605508689
287 16 2 35.2781325842 21.1650719094 18.471386075
288 16 2 36.1174081393 20.5877216351 18.6584194259
289 17 1 52.7096268811 46.9252951446 24.7692405332
290 17 1 47.7041991098 49.1574202563 24.2215679682
291 17 2 52.722130121 46.371042788 24.7638790159
292 17 2 52.5757233146 45.3569781464 24.9153261049
293 17 2 52.2100625712 44.4485691855 25.2526444288
294 17 2 51.6453402631 43.7246034862 25.7318736558
295 17 2 50.9198918594 43.2470578906 26.2961192483
296 17 2 50.0867019107 43.0554497378 26.8807380099
297 17 2 49.208574871 43.1632351294 27.4192298693
298 17 2 48.352410902 43.5565824982 27.8492989062
299 17 2 47.5831083817 44.1956332606 28.1185311974
300 17 2 46.9576488632 45.0181346532 28.189171986
301 17 2 46.5199035957 45.9451136453 28.0415667692
302 17 2 46.2966349617 46.8880747896 27.6759526714
303 17 2 46.2950572688 47.7570659749 27.1124368315
304 17 2 46.5021792155 48.4688769449 26.3891637756
305 17 2 46.8859879588 48.954623342 25.5588388047
306 17 2 47.3983668657 49.1660250447 24.6839242677
307 18 1 47.3086695598 20.4710096411 43.3636236858
308 18 1 42.1028945009 19.6673351529 44.9731727779
309 18 2 47.3923258552 20.9235603823 43.0544632056
310 18 2 47.367732198 21.6845921516 42.3523776915
311 18 2 47.1009602549 22.2858161409 41.5523397448
312 18 2 46.604663858 22.6849919911 40.735610415
313 18 2 45.9124164195 22.8582946457 39.9849720567
314 18 2 45.0756509457 22.8024858413 39.3771832856
315 18 2 44.1589722709 22.5352092533 38.9759829569
316 18 2 43.2342687698 22.0933823956 38.8262808056
317 18 2 42.3741602251 21.5298318427 38.9500642323
318 18 2 41.645379032 20.908478449 39.3443943019
319 18 2 41.102687998 20.2985114018 39.9816736081
320 18 2 40.7838890885 19.768082101 40.812161587
321 18 2 40.7063780366 19.378092626 41.7685080291
322 18 2 40.8655588418 19.1766449291 42.7718915888
323 18 2 41.2352626633 19.1946566723 43.7392038096
324 18 2 41.770132931 19.4430432941 44.5906238904
325 19 1 7.91895775669 6.85562666139 57.2694809575
326 19 1 9.16757882051 6.98220248383 51.9065005429
327 19 2 8.33229729525 6.99701789571 57.6108600669
328 19 2 9.22641021875 7.10443180782 58.1224483805
329 19 2 10.2137362095 7.01214916994 58.4213958238
330 19 2 11.2125785198 6.74275432673 58.4707793096
331 19 2 12.1401907684 6.33497418602 58.2564217948
332 19 2 12.9203187058 5.84014852674 57.7881844199
333 19 2 13.4901502663 5.31755073007 57.0990677341
334 19 2 13.8060404572 4.82898541706 56.2422039215
335 19 2 13.8474893004 4.43315538123 55.2860141667
336 19 2 13.6190102653 4.18031123139 54.3079725328
337 19 2 13.1497188966 4.10767139316 53.3875447322
338 19 2 12.4906791321 4.23602990465 52.598945371
339 19 2 11.7102491752 4.56786118248 52.0043737971
340 19 2 10.8878511129 5.08709449563 51.6483450558
341 19 2 10.1067321371 5.76057870242 51.5536326487
342 19 2 9.4463771344 6.54110374976 51.7191928853
343 20 1 33.6102151337 26.2555584956 43.3243289321
344 20 1 36.9728816885 27.6402265338 47.4609704433
345 20 2 33.5355517998 26.6482064179 42.9400975599
346 20 2 33.3511501031 27.5179237669 42.4087916047
347 20 2 33.138082139 28.500642071 42.1606685533
348 20 2 32.9332325759 29.5143233366 42.2171063014
349 20 2 32.7727370316 30.4741075086 42.571724116
350 20 2 32.6886885587 31.3000468826 43.1909641953
351 20 2 32.7062125838 31.9243927896 44.0171502325
352 20 2 32.8411768965 32.2977704232 44.9737442154
353 20 2 33.0987454093 32.3936790143 45.9723223418
354 20 2 33.4729075027 32.2109071949 46.9206342425
355 20 2 33.9470258515 31.7736434054 47.7310109702
356 20 2 34.4953528031 31.1292712848 48.3283554231
357 20 2 35.0853770997 30.3440509763 48.6569869304
358 20 2 35.6807870563 29.4970799699 48.6857161642
359 20 2 36.244780122 28.6730839081 48.4106878325
360 20 2 36.7434171798 27.9546944251 47.8557320628
361 21 1 35.5764112941 42.8497366973 2.04359583406
362 21 1 32.999388035 39.7116788921 5.76491001862
363 21 2 35.4790222253 43.3938462755 2.08650140279
364 21 2 35.0718740752 44.3424323311 2.17084089561
365 21 2 34.4053029408 45.1289382102 2.26978378842
366 21 2 33.5396599469 45.6840269295 2.39322199937
367 21 2 32.5534402535 45.9594535931 2.54881486634
368 21 2 31.5361287599 45.9324625844 2.74129105075
369 21 2 30.58004417 45.607861584 2.97201755252
370 21 2 29.7719247752 45.0175833827 3.23887511739
371 21 2 29.1850228538 44.2177754268 3.53645139242
372 21 2 28.872428228 43.2836823632 3.85653422483
373 21 2 28.8622294908 42.3027880057 4.18886014347
374 21 2 29.1549539232 41.366841785 4.5220498038
375 21 2 29.7235194361 40.5634964175 4.84464513717
376 21 2 30.5157029171 39.9683189608 5.14615367516
377 21 2 31.4589000093 39.6379033947 5.4180048662
378 21 2 32.4667425003 39.6047124679 5.65433122257
379 22 1 37.6171839693 49.2330768333 26.3090656538
380 22 1 37.5945274995 45.7736787794 30.594936244
381 22 2 37.2377530169 49.6367612271 26.3303215753
382 22 2 36.3813745737 50.213148876 26.4145326868
383 22 2 35.4027054396 50.5167671513 26.5652673542
384 22 2 34.3911062378 50.5243905981 26.7873196204
385 22 2 33.4389389411 50.2397716609 27.0789834181
386 22 2 32.633148712 49.6932986737 27.4322080662
387 22 2 32.0473394466 48.9392261719 27.8333320342
388 22 2 31.7350652845 48.0507299633 28.2643280969
389 22 2 31.724949516 47.113237655 28.7044463925
390 22 2 32.0180757653 46.2166425126 29.1321056304
391 22 2 32.587889226 45.4471103056 29.5268600773
392 22 2 33.3826169492 44.8792258878 29.8712630464
393 22 2 34.329986593 44.5691952998 30.1524570427
394 22 2 35.3438135511 44.5497229734 30.3633456357
395 22 2 36.3318560886 44.8270309468 30.5032402503
396 22 2 37.2042225435 45.3802917689 30.577922926
397 23 1 52.4252390781 6.34831921992 23.0150992701
398 23 1 48.7943472213 2.65468733173 24.8886901342
399 23 2 52.377850263 6.85619525255 23.2323479463
400 23 2 52.0627208926 7.77937851205 23.5803772847
401 23 2 51.4757578523 8.59197176453 23.8408861453
402 23 2 50.6662290411 9.21594190366 24.0082857881
403 23 2 49.703687702 9.59044752667 24.0854737399
404 23 2 48.6716331207 9.67738421108 24.0835697044
405 23 2 47.6599002387 9.46485747156 24.020902078
406 23 2 46.7564718135 8.96826686071 23.9213374416
407 23 2 46.0394593941 8.22890240544 23.8121052856
408 23 2 45.5699839888 7.31018130409 23.7213162287
409 23 2 45.3866053041 6.29186788361 23.6753999274
410 23 2 45.5018072917 5.26280362801 23.6966961942
411 23 2 45.9008603225 4.31280988623 23.8014188769
412 23 2 46.5431636907 3.52450127197 23.9981780773
413 23 2 47.3659460901 2.9657559081 24.2871954
414 23 2 48.289986788 2.68352880113 24.6602837538
415 24 1 60.5781060388 56.0500617021 38.7594823782
416 24 1 60.2942517759 50.862552054 40.5886366458
417 24 2 60.3273275502 56.4267241518 39.0798201691
418 24 2 59.6780165197 56.9803143176 39.6668733056
419 24 2 58.850076215 57.2896631629 40.2067959064
420 24 2 57.923138391 57.3201572033 40.6678324072
421 24 2 56.985857748 57.0625986584 41.0254171711
422 24 2 56.1278316634 56.5340437657 41.2644134777
423 24 2 55.4314340048 55.776248222 41.3804931316
424 24 2 54.9643073169 54.8518614376 41.3805309471
425 24 2 54.7731976675 53.8387164724 41.2819781571
426 24 2 54.8796940636 52.8227360857 41.1112718516
427 24 2 55.2782607616 51.8901014664 40.9014254194
428 24 2 55.9367418124 51.1193974078 40.6890196031
429 24 2 56.7992918556 50.5744498428 40.5108684158
430 24 2 57.7914660413 50.298508548 40.4006637961
431 24 2 58.8270051676 50.3103052225 40.3859048186
432 24 2 59.8156976158 50.6023462226 40.4853913422
433 25 1 29.5876732539 20.6978666882 41.0116479516
434 25 1 29.5536634982 16.9429974621 45.0410939877
435 25 2 29.5975895504 21.2255068256 41.1815841282
436 25 2 29.4363896932 22.1428404827 41.6345872614
437 25 2 29.0651403495 22.8971260331 42.2395050279
438 25 2 28.5293489683 23.4185873125 42.9562364985
439 25 2 27.8895198772 23.6586684925 43.7344896914
440 25 2 27.2156397278 23.5944596117 44.5183653417
441 25 2 26.5807986923 23.2307846614 45.2514517358
442 25 2 26.0545287952 22.599761912 45.8819662528
443 25 2 25.696466546 21.7578765529 46.3674749953
444 25 2 25.5509174807 20.7808324546 46.6787603476
445 25 2 25.6428180153 19.75665228 46.8024839621
446 25 2 25.9754626628 18.7776548222 46.7424024571
447 25 2 26.5302037609 17.9320407795 46.5190250278
448 25 2 27.2681510786 17.2958538663 46.1677441731
449 25 2 28.133716394 16.9260499502 45.7356099122
450 25 2 29.0596799797 16.8553059146 45.277041498
451 26 1 34.8537881689 27.6058379274 16.2642463729
452 26 1 32.3202656091 24.8916890035 20.332574529
453 26 2 34.8576748271 28.157808451 16.316151927
454 26 2 34.6342299507 29.1603397018 16.4491998493
455 26 2 34.1320636359 30.0470895494 16.6341375985
456 26 2 33.3995771644 30.7393089894 16.8728719427
457 26 2 32.5061639212 31.17597913 17.1624064591
458 26 2 31.5358846632 31.3193726463 17.4951146375
459 26 2 30.5798059574 31.1584923668 17.8594349844
460 26 2 29.7277000881 30.7100735903 18.240924774
461 26 2 29.0598629283 30.0170587784 18.6235764032
462 26 2 28.6397955212 29.144683644 18.9912763755
463 26 2 28.5084163963 28.1745313642 19.3292739353
464 26 2 28.680332125 27.197096832 19.6255254983
465 26 2 29.1425060326 26.3035386681 19.8717923415
466 26 2 29.855446401 25.5773707372 20.0643915065
467 26 2 30.7568058688 25.086850432 20.2045314758
468 26 2 31.7670639655 24.8787574796 20.2982020278
469 27 1 27.7442701626 8.76997555223 52.8946705134
470 27 1 28.7363499229 7.55081409916 58.1735016367
471 27 2 27.7154526762 9.31153422761 52.7794988796
472 27 2 27.5126314984 10.3266524558 52.7463805493
473 27 2 27.144670067 11.2706700967 52.9611673034
474 27 2 26.6588493711 12.0645831846 53.4154563428
475 27 2 26.1131924636 12.6430687547 54.0790158772
476 27 2 25.571176058 12.9604385833 54.9025405453
477 27 2 25.0959450608 12.9948033565 55.8221452608
478 27 2 24.7445573465 12.7500677306 56.7651878997
479 27 2 24.5627833236 12.25557445 57.656890132
480 27 2 24.5809342753 11.5634299569 58.4271529538
481 27 2 24.8110996942 10.7437552464 59.0169457309
482 27 2 25.2460454077 9.87829481835 59.3836864362
483 27 2 25.8598729235 9.05296622718 59.5051227098
484 27 2 26.6103798993 8.35002928532 59.3813600089
485 27 2 27.4429065972 7.84058864555 59.0348519961
486 27 2 28.2953177439 7.57811309936 58.508354042
487 28 1 39.0054798769 40.7893911855 61.7742051358
488 28 1 39.8783253022 36.7036687013 65.3633063566
489 28 2 38.9079471028 41.2855956091 62.0014699144
490 28 2 38.5683672771 42.0932265887 62.5538429893
491 28 2 38.0623074037 42.6813417859 63.2399349587
492 28 2 37.4479207472 42.996220616 64.0119962449
493 28 2 36.7932338155 43.0090461157 64.8144417566
494 28 2 36.1699462107 42.7185314119 65.5889170884
495 28 2 35.6468957011 42.1510370114 66.2796171253
496 28 2 35.2837841312 41.3581682213 66.8383722958
497 28 2 35.1257360078 40.412071679 67.2290388985
498 28 2 35.1991857103 39.3988596812 67.4307933524
499 28 2 35.5094681786 38.4107616379 67.440030124
500 28 2 36.0403326695 37.5377179947 67.2706903461
501 28 2 36.7554239012 36.8591827773 66.95299118
502 28 2 37.6015955872 36.4368819017 66.530671728
503 28 2 38.5137543563 36.3091872809 66.0570065142
504 28 2 39.4207925673 36.4876194873 65.5899498767
505 29 1 55.1398679311 33.8299449613 37.0431281676
506 29 1 52.1098559487 29.2312300528 36.9566209202
507 29 2 55.6294030559 33.7845716958 37.2994041517
508 29 2 56.4145741918 33.6058714466 37.9507648654
509 29 2 56.9738221312 33.3050971094 38.7689792697
510 29 2 57.2616845639 32.8922066623 39.674161555
511 29 2 57.2574341078 32.3873766979 40.5784993856
512 29 2 56.9669674679 31.8191634658 41.394257392
513 29 2 56.4222679922 31.2219001655 42.0417736485
514 29 2 55.6784906085 30.6325677112 42.4567203112
515 29 2 54.8089348309 30.087424175 42.5959666604
516 29 2 53.898364012 29.618700112 42.4415101696
517 29 2 53.0352797441 29.2516609661 42.0021173125
518 29 2 52.3038555458 29.0023042983 41.3125245591
519 29 2 51.7762650233 28.8759017187 40.4302723846
520 29 2 51.5061037405 28.8665184149 39.4304608493
521 29 2 51.5235043514 28.9575540701 38.3989047436
522 29 2 51.8323902145 29.1232558679 37.4243121575
523 30 1 31.5611556704 39.3775415163 35.4818648539
524 30 1 34.8939530626 39.0724205171 39.8563359814
525 30 2 31.5535231159 38.9263530101 35.1597601695
526 30 2 31.7732500475 38.1064656299 34.5662932114
527 30 2 32.2792752206 37.3703783528 34.0420677677
528 30 2 33.026437699 36.771214496 33.6477973343
529 30 2 33.9475985343 36.3496177456 33.4323508987
530 30 2 34.9597600209 36.1300477634 33.4282988674
531 30 2 35.9716303677 36.1185508562 33.648944496
532 30 2 36.8919443191 36.3022088969 34.087111389
533 30 2 37.6377813569 36.6503167227 34.7157975792
534 30 2 38.1421233378 37.1171807005 35.4906365713
535 30 2 38.3599627368 37.6462833879 36.3539410445
536 30 2 38.2724047753 38.1754347112 37.2399606558
537 30 2 37.88838955 38.6424401635 38.080874733
538 30 2 37.2438772047 38.9907694083 38.8129736642
539 30 2 36.3985704099 39.1747086316 39.3824655921
540 30 2 35.4304728733 39.1635270426 39.7503791727
541 31 1 31.2138722672 25.0101939283 41.6805379228
542 31 1 36.1528052859 23.7959289161 43.7945710455
543 31 2 31.1896183093 25.015241905 41.126672402
544 31 2 31.3336445431 25.1629069979 40.1117094789
545 31 2 31.7208901161 25.4653934528 39.1999852432
546 31 2 32.3273223231 25.8804194835 38.4701279673
547 31 2 33.1089311002 26.3554460929 37.9841899969
548 31 2 34.0057402397 26.8324656427 37.7819921054
549 31 2 34.9472738113 27.2532888516 37.8774941033
550 31 2 35.8589795588 27.5648483495 38.2575224974
551 31 2 36.669023828 27.7240354045 38.882971164
552 31 2 37.3148387113 27.7016289882 39.6923656044
553 31 2 37.7488246836 27.484959072 40.6074659236
554 31 2 37.942688973 27.0790614134 41.5403978606
555 31 2 37.8900242524 26.5062185813 42.4016619247
556 31 2 37.6068926238 25.8039290528 43.1082906604
557 31 2 37.1303616679 25.0214894834 43.5914105621
558 31 2 36.5151259879 24.2155016558 43.8025194221
559 32 1 0.965579030971 34.4245623733 38.6674488658
560 32 1 4.5461615607 37.9112669237 36.3525071704
561 32 2 1.15500227096 33.9092253794 38.7444382838
562 32 2 1.57118003045 32.9643882951 38.6621143642
563 32 2 2.04990075715 32.1212993382 38.2977989135
564 32 2 2.56557738848 31.4600786551 37.6898819034
565 32 2 3.08925458454 31.0442703461 36.8989559172
566 32 2 3.59124780883 30.9150508562 36.002293552
567 32 2 4.04384887018 31.0874760243 35.0868045505
568 32 2 4.42385133445 31.549108847 34.2411145747
569 32 2 4.71466563188 32.2611530258 33.5474875835
570 32 2 4.90783108261 33.1619889842 33.0743280376
571 32 2 5.00378702971 34.1727900691 32.8699463016
572 32 2 5.011832796 35.2047070603 32.9581554854
573 32 2 4.94928011454 36.1669661673 33.3361010425
574 32 2 4.83987528292 36.9751424382 33.9745209427
575 32 2 4.71163485096 37.5588545154 34.820412705
576 32 2 4.59429210432 37.8681794134 35.8018642109
577 33 1 23.8296403649 21.6185817725 5.45098327242
578 33 1 21.4938817891 18.8411204579 9.594239896
579 33 2 23.8878524458 22.1633436418 5.53599274812
580 33 2 23.7691622063 23.1689302549 5.75372299784
581 33 2 23.3693289915 24.0785868009 6.04588158474
582 33 2 22.7295039925 24.8099263814 6.40430125455
583 33 2 21.9127120062 25.2968144672 6.81477550958
584 33 2 20.9981071569 25.4953966068 7.2583534336
585 33 2 20.073758541 25.3880954588 7.71306693789
586 33 2 19.2286233322 24.9852128466 8.15593300197
587 33 2 18.5444389453 24.3239908173 8.56504841828
588 33 2 18.0882732313 23.4652172848 8.92158611942
589 33 2 17.9064117023 22.4876856281 9.21151113624
590 33 2 18.0201389247 21.4810132148 9.42685978908
591 33 2 18.4237985768 20.5374733928 9.56646552252
592 33 2 19.0853089837 19.7435854074 9.63606522898
593 33 2 19.9490871421 19.1722287645 9.64777637025
594 33 2 20.9411147299 18.8760007642 9.61899255394