LAMMPS input file for bananas

648 atoms

2 atom types

0 85.0126855346 xlo xhi
0 85.0126855346 ylo yhi
0 85.0126855346 zlo zhi

Masses

 1 1
 2 1

Atoms

1 1 1 20.1631593995 33.0607866428 59.3400105237
2 1 1 19.3267183727 31.2115930651 64.4779907283
3 1 2 19.989834938 33.5791777334 59.2472156085
4 1 2 19.4662498916 34.4699347993 59.1706613143
5 1 2 18.7298342506 35.1954541343 59.2396809439
6 1 2 17.8522916027 35.6982665314 59.4645111144
7 1 2 16.9181888851 35.9412019255 59.8411867288
8 1 2 16.0172483343 35.9107773459 60.3519023836
9 1 2 15.2361695438 35.6184258527 60.9666352838
10 1 2 14.650727028 35.0994544443 61.6458817407
11 1 2 14.3188635779 34.4098259186 62.3442578271
12 1 2 14.2754089303 33.6210580135 63.0146360015
13 1 2 14.5289051305 32.8137047564 63.6124406569
14 1 2 15.0608279478 32.0700141801 64.0997110689
15 1 2 15.8272753094 31.4664316339 64.4485614137
16 1 2 16.7629688571 31.0666319948 64.6437224868
17 1 2 17.7872038953 30.9157158724 64.68393345
18 1 2 18.8112054083 31.0360988089 64.5820567536
19 2 1 18.5079259011 73.9091730211 7.76753154649
20 2 1 20.959701225 74.30470269 2.83292466208
21 2 2 18.1630065249 74.3253032895 7.89101357632
22 2 2 17.7011651263 75.2373312979 8.05941026741
23 2 2 17.5061844945 76.2531385063 8.11914534734
24 2 2 17.5875851666 77.2835404214 8.04776022906
25 2 2 17.9296962625 78.2380222814 7.83474758111
26 2 2 18.4930838436 79.0329892347 7.48250904284
27 2 2 19.2181452114 79.5993857868 7.00613632137
28 2 2 20.0305415337 79.8889900248 6.43203562284
29 2 2 20.8479736306 79.8788089151 5.7955207973
30 2 2 21.5876833249 79.5731740573 5.13759457567
31 2 2 22.1739966285 79.0033468707 4.50121128036
32 2 2 22.5452212246 78.2246691989 3.92736165367
33 2 2 22.6592695568 77.3115190494 3.45133666111
34 2 2 22.4974949982 76.3505312364 3.09951081427
35 2 2 22.0663914409 75.4327008492 2.88693820454
36 2 2 21.3970013955 74.6450892932 2.81598036297
37 3 1 9.2609455559 79.3555641039 9.63442182194
38 3 1 4.37497826171 78.3804176036 12.0207168507
39 3 2 9.58198609814 79.7210666646 9.90035872502
40 3 2 9.98787256663 80.5369983134 10.3932702084
41 3 2 10.106829632 81.4559039754 10.8568558122
42 3 2 9.92455216866 82.3896130154 11.2672365698
43 3 2 9.45419177305 83.2486055097 11.605382994
44 3 2 8.735158031 83.9501717481 11.858849564
45 3 2 7.8295264392 84.4259510028 12.0229091014
46 3 2 6.8163803896 84.6281624263 12.10098364
47 3 2 5.78460292964 84.5339601476 12.1043325162
48 3 2 4.82477531 84.1475156122 12.0510261109
49 3 2 4.02092074573 83.4996373666 11.9642987825
50 3 2 3.44284592475 82.6449629409 11.8704311172
51 3 2 3.13977831484 81.6569787845 11.7963545238
52 3 2 3.13587921153 80.6213221723 11.7671965078
53 3 2 3.42804150057 79.6279755963 11.8039903665
54 3 2 3.9861728631 78.7630651017 11.9217580601
55 4 1 17.7936789525 45.4920017224 70.9719293341
56 4 1 16.1070550081 41.4645572001 67.5877039647
57 4 2 18.0566956859 45.3188289489 71.428235127
58 4 2 18.3611219083 44.8543028321 72.3028722935
59 4 2 18.4073717903 44.2320483266 73.1299818932
60 4 2 18.2014943248 43.4940239628 73.8273946253
61 4 2 17.7725192384 42.6927403843 74.3247627115
62 4 2 17.1698110097 41.886474143 74.5699719088
63 4 2 16.4585694289 41.1339559473 74.5338915825
64 4 2 15.7138868111 40.4890175147 74.2130298864
65 4 2 15.0139035325 39.995684955 73.629852035
66 4 2 14.432685744 39.6841659078 72.8307326591
67 4 2 14.0334744397 39.5680961971 71.8817288826
68 4 2 13.8629212089 39.6432969622 70.8625593915
69 4 2 13.9468360687 39.8881555497 69.8593382894
70 4 2 14.28783495 40.2655954492 68.9567260269
71 4 2 14.8651012621 40.7264557181 68.2302128277
72 4 2 15.6362832697 41.2139718699 67.7392379564
73 5 1 79.4849882719 64.5788255948 27.4098339763
74 5 1 79.6328274366 62.7262507529 32.6121508734
75 5 2 79.9801591187 64.6944904448 27.1889062438
76 5 2 80.9354273751 65.0334745195 26.9744246206
77 5 2 81.8619437576 65.492481319 27.040228588
78 5 2 82.686122835 66.0155401286 27.3874869086
79 5 2 83.3437069478 66.5408420643 27.991714533
80 5 2 83.7856231222 67.006373787 28.8050043467
81 5 2 83.9824559409 67.3555698526 29.7603937754
82 5 2 83.9271286789 67.5424685015 30.7779682446
83 5 2 83.635548329 67.5359009497 31.7721451796
84 5 2 83.1451557214 67.3223323404 32.6594746283
85 5 2 82.5115128921 66.9070954097 33.3662455017
86 5 2 81.8032387521 66.3139044224 33.8352041421
87 5 2 81.0957546567 65.58269368 34.0307728412
88 5 2 80.464409951 64.7659776154 33.9422926533
89 5 2 79.977614078 63.9240642435 33.5849949294
90 5 2 79.6906012411 63.1195582462 32.9986130206
91 6 1 13.7748310205 46.9658411241 69.7168301396
92 6 1 16.3162575279 51.639350361 71.2059418819
93 6 2 14.0046063397 46.5017161369 69.9147515559
94 6 2 14.6319774468 45.7273817229 70.1980565511
95 6 2 15.469898399 45.1402979177 70.3613694249
96 6 2 16.4472093107 44.7994344709 70.4074726095
97 6 2 17.4800452743 44.7413188046 70.3498318871
98 6 2 18.4794804219 44.9767066364 70.2113690199
99 6 2 19.3596332808 45.4896016244 70.0223724923
100 6 2 20.0454946401 46.2387133912 69.817736797
101 6 2 20.4797644399 47.1612210313 69.6337818949
102 6 2 20.6280745182 48.1784990691 69.504942748
103 6 2 20.4821211777 49.2032839601 69.4606306645
104 6 2 20.0604220449 50.1476279305 69.5225525365
105 6 2 19.4066282385 50.9309151812 69.7027323153
106 6 2 18.5855456862 51.4872098029 70.0024150598
107 6 2 17.6772282379 51.7712656575 70.4119534532
108 6 2 16.7696809709 51.762650443 70.9116871298
109 7 1 76.3745921706 68.2284264621 69.7222579436
110 7 1 76.5820415909 72.8729330889 66.738382277
111 7 2 76.8336507494 67.9181056446 69.7036085624
112 7 2 77.6672825636 67.3640285444 69.4362014261
113 7 2 78.414213519 66.8991996937 68.8889553218
114 7 2 79.0201307839 66.5793880192 68.1117585821
115 7 2 79.443574548 66.4471445199 67.1754589257
116 7 2 79.6597169726 66.5279238566 66.1654058764
117 7 2 79.6626251822 66.8277642283 65.1736713832
118 7 2 79.46580203 67.3327370059 64.2906577074
119 7 2 79.100955349 68.0102162899 63.5968574982
120 7 2 78.6151078678 68.8118526738 63.1555171033
121 7 2 78.0663112144 69.6779801633 63.0068718332
122 7 2 77.5183546658 70.5430545722 63.1644786197
123 7 2 77.0349509255 71.3416276996 63.6139803385
124 7 2 76.6739288812 72.014312759 64.3144144222
125 7 2 76.481962656 72.5131973245 65.2019464891
126 7 2 76.4903173871 72.8062104209 66.1956886765
127 8 1 71.7398415658 62.8525766217 26.7500051816
128 8 1 71.9051073078 68.3734482157 26.6467814516
129 8 2 71.3865448624 62.6363095872 27.1185042959
130 8 2 70.8345396636 62.3782259766 27.9564381367
131 8 2 70.4545803974 62.3404018453 28.9195841808
132 8 2 70.26650791 62.5384926511 29.9190034039
133 8 2 70.2726730807 62.966650836 30.8624505781
134 8 2 70.4577225453 63.5980588152 31.6627821785
135 8 2 70.7899981143 64.3873733286 32.245899282
136 8 2 71.2244223323 65.2748583573 32.5575014865
137 8 2 71.7066071676 66.1918299024 32.5680362471
138 8 2 72.177811336 67.0669163479 32.2753925119
139 8 2 72.5802944114 67.8325637927 31.7050931384
140 8 2 72.862579712 68.431193408 30.9079685534
141 8 2 72.9841462618 68.8204495938 29.9555236957
142 8 2 72.9191221693 68.9770605786 28.9334205317
143 8 2 72.6586427814 68.8989595793 27.9336701961
144 8 2 72.2116586727 68.6054731825 27.0462464232
145 9 1 55.2801004874 32.9624878811 12.9190973745
146 9 1 50.0544572457 32.390816216 14.6172832534
147 9 2 55.4564203284 33.486530526 12.8782047333
148 9 2 55.5878249319 34.4945920787 12.6782178653
149 9 2 55.4449516329 35.465859908 12.3470441414
150 9 2 55.0324366444 36.3199420323 11.9301207428
151 9 2 54.3794932984 36.9871276337 11.4807007039
152 9 2 53.5372493292 37.4147410128 11.0549990413
153 9 2 52.574086717 37.5719428381 10.707068905
154 9 2 51.569408853 37.4525410684 10.4838747782
155 9 2 50.6064031328 37.0755553408 10.4210117901
156 9 2 49.7644586474 36.4834833818 10.5394613153
157 9 2 49.1119300798 35.738427453 10.8436785773
158 9 2 48.6999073582 34.916433896 11.3211865671
159 9 2 48.5575589461 34.1005617114 11.9437132888
160 9 2 48.6894732143 33.3733119533 12.6697686767
161 9 2 49.0752402231 32.8091079783 13.4484263041
162 9 2 49.6713120344 32.4675119559 14.2239651906
163 10 1 66.2737242151 31.2826970382 15.9457342999
164 10 1 63.865968671 32.7057022156 20.7097410764
165 10 2 66.6924495036 31.6103643912 15.7886202439
166 10 2 67.3197784213 32.3949354593 15.5349340615
167 10 2 67.7028737176 33.3429107506 15.367509893
168 10 2 67.8153044988 34.3716961227 15.3184182561
169 10 2 67.6553102182 35.3913318104 15.4089439748
170 10 2 67.2459611454 36.3126920178 15.6476461239
171 10 2 66.6330555728 37.0556084963 16.0295778929
172 10 2 65.8809454238 37.5561776664 16.5367374743
173 10 2 65.0666707469 37.7725852579 17.1397088799
174 10 2 64.2729377209 37.688917569 17.80034313
175 10 2 63.5805802083 37.3166119577 18.4752354309
176 10 2 63.0611919645 36.6934143571 19.1196814054
177 10 2 62.7706010582 35.8799388347 19.6917517776
178 10 2 62.7437812923 34.954142782 20.1561141146
179 10 2 62.9916644355 34.0042213063 20.4872532826
180 10 2 63.5001438202 33.1205684832 20.671797084
181 11 1 37.7250932851 43.2360407357 9.72581955178
182 11 1 40.1441415606 42.6187121797 14.6538112275
183 11 2 37.2616623531 42.9402160498 9.65439746443
184 11 2 36.5293753172 42.2095135628 9.59712981502
185 11 2 36.0222933943 41.3080516215 9.65782827451
186 11 2 35.7784951654 40.3192513444 9.84831829224
187 11 2 35.8120616063 39.3344945061 10.168595164
188 11 2 36.1117926448 38.4447943322 10.6068244605
189 11 2 36.6422280168 37.7324998877 11.1404207045
190 11 2 37.3468793749 37.2637901794 11.7381059763
191 11 2 38.1533790501 37.0826421163 12.3627608124
192 11 2 38.9800761718 37.2068221324 12.9748075458
193 11 2 39.7434789257 37.626266823 13.5358177043
194 11 2 40.3658646104 38.3040001976 14.0120146632
195 11 2 40.782363853 39.1795039426 14.377352294
196 11 2 40.94687328 40.1742335036 14.615889
197 11 2 40.8362577157 41.1987772118 14.7232407497
198 11 2 40.4524588922 42.1610059185 14.7069806696
199 12 1 54.4018798419 27.5426919594 81.2887089646
200 12 1 50.4568736814 25.5612364678 84.6096653915
201 12 2 54.2923947279 28.0384029037 81.0658519307
202 12 2 53.8839576327 28.8633035471 80.5902806122
203 12 2 53.2368310502 29.4981072826 80.0885820825
204 12 2 52.4012553136 29.8939302921 79.6210488273
205 12 2 51.4446473932 30.0236712123 79.2448592589
206 12 2 50.445456019 29.8844813508 79.0088660568
207 12 2 49.4860112893 29.4980243373 78.9491433764
208 12 2 48.6450205018 28.9085015417 79.085698786
209 12 2 47.990394194 28.1786232368 79.4206496309
210 12 2 47.5730562792 27.3838927254 79.9380300425
211 12 2 47.422302468 26.6057244152 80.6052461848
212 12 2 47.5431300423 25.9240231137 81.3760470955
213 12 2 47.9157823667 25.4099009184 82.1947403376
214 12 2 48.4975496527 25.1191955391 83.0012682159
215 12 2 49.2266618423 25.08738084 83.7366818757
216 12 2 50.0279187832 25.3263334918 84.3485143333
217 13 1 5.76905836404 12.4323556554 74.5664141922
218 13 1 1.06407984395 9.76123233056 73.4500502863
219 13 2 5.8237292449 12.9238826664 74.3158271211
220 13 2 5.86906551251 13.720303276 73.6546850435
221 13 2 5.82201115852 14.3003470453 72.7974889605
222 13 2 5.66892557095 14.6179914155 71.8232626685
223 13 2 5.40583260134 14.6511308317 70.8216969544
224 13 2 5.03878298007 14.403591605 69.8849745206
225 13 2 4.58330280851 13.9047831548 69.0993677777
226 13 2 4.06297839629 13.2070174184 68.537375345
227 13 2 3.50730643228 12.3807407582 68.2511139951
228 13 2 2.94900544023 11.5081129638 68.2675683494
229 13 2 2.42103357276 10.6755186065 68.5861313018
230 13 2 1.95358456383 9.96569331727 69.1786593551
231 13 2 1.57133565064 9.4501826543 69.9920378254
232 13 2 1.29119830937 9.18282091711 70.9530221035
233 13 2 1.12077681932 9.19482429384 71.9749137053
234 13 2 1.05767515322 9.49194558919 72.965462607
235 14 1 27.8735323288 35.7261570309 57.3999897143
236 14 1 28.4916721211 30.4871842394 59.0398245682
237 14 2 27.8368520635 36.0967103055 57.8107529269
238 14 2 27.6050252165 36.6414021312 58.661057072
239 14 2 27.190923378 36.945032715 59.560933812
240 14 2 26.6449438527 36.9729654643 60.4410338805
241 14 2 26.0295042442 36.715692907 61.2338106024
242 14 2 25.4133532568 36.1897032725 61.8796765917
243 14 2 24.8653044351 35.4359776334 62.3324349835
244 14 2 24.4479639934 34.5162545908 62.5634901539
245 14 2 24.2120244266 33.5074029651 62.5644541352
246 14 2 24.1916440245 32.4944154089 62.3479111568
247 14 2 24.4013334353 31.562661554 61.9462706259
248 14 2 24.8346330587 30.7901067973 61.4088130969
249 14 2 25.464701821 30.2402059634 60.7971984806
250 14 2 26.2467636676 29.956119567 60.1798459083
251 14 2 27.1221887805 29.9567798471 59.6256975103
252 14 2 28.0238375293 30.2351651445 59.1979345256
253 15 1 36.9207873723 31.5064706496 43.6926897448
254 15 1 38.4589530152 34.5325117715 48.0510280342
255 15 2 37.1907455395 31.6206224198 43.2220799814
256 15 2 37.6371600328 32.055895177 42.3946129197
257 15 2 37.9875367242 32.746507323 41.7063244271
258 15 2 38.227764985 33.6327214522 41.2263609794
259 15 2 38.3537739213 34.636971561 41.0048807816
260 15 2 38.3719034256 35.6709329818 41.0684819809
261 15 2 38.2983263121 36.6435729402 41.4177783176
262 15 2 38.1575742083 37.4694479494 42.0273431836
263 15 2 37.9803015623 38.0764917551 42.8480271898
264 15 2 37.8004915722 38.4125839827 43.811438002
265 15 2 37.6523587081 38.4503007695 44.8361741192
266 15 2 37.5672301547 38.189414377 45.8352444024
267 15 2 37.5706904224 37.656913948 46.723997085
268 15 2 37.6802493872 36.9045455191 47.4278355548
269 15 2 37.9037463123 36.0040955074 47.889017636
270 15 2 38.2386353206 35.0408475703 48.0719186338
271 16 1 46.0347713109 24.7481755814 76.179759155
272 16 1 47.5896118076 19.5716933127 75.0376149378
273 16 2 46.3352428146 25.0014146183 76.5708709724
274 16 2 46.8535873717 25.2784330803 77.4241175388
275 16 2 47.2893211194 25.2735918656 78.3640976848
276 16 2 47.6204167491 24.9809403303 79.3012106844
277 16 2 47.8343844368 24.4207609716 80.1461171443
278 16 2 47.9294102575 23.6377207332 80.8178820508
279 16 2 47.9145215195 22.696799732 81.25135178
280 16 2 47.8087639492 21.6773684946 81.4030926767
281 16 2 47.6394657244 20.6659535458 81.2553499155
282 16 2 47.4397465834 19.748350747 80.8176658063
283 16 2 47.24549905 19.0018052329 80.1260100375
284 16 2 47.0921169256 18.4879707241 79.2395011359
285 16 2 47.0112692385 18.2472899547 78.2350179704
286 16 2 47.0280136973 18.2953084259 77.2001924485
287 16 2 47.158512747 18.6212574744 76.2254221027
288 16 2 47.4085604058 19.1890358079 75.3956305967
289 17 1 18.4226973397 62.0859028457 77.1811415172
290 17 1 13.574193737 60.2392779118 79.0785029033
291 17 2 18.423542972 62.6161693561 77.0192826253
292 17 2 18.2351129615 63.5420954132 76.5943060623
293 17 2 17.8060515745 64.31632281 76.0558561803
294 17 2 17.16411811 64.876407538 75.4662151575
295 17 2 16.3564745875 65.1794241203 74.8923311076
296 17 2 15.4453870557 65.2058781547 74.3997159387
297 17 2 14.5025502082 64.9614831759 74.0464741172
298 17 2 13.6025526037 64.4766398823 73.8780066017
299 17 2 12.8160781186 63.8036651935 73.9228726664
300 17 2 12.2034633004 63.012023703 74.1901868001
301 17 2 11.8091978524 62.181996166 74.6687879446
302 17 2 11.6578695166 61.3973621233 75.3282567953
303 17 2 11.7519229666 60.73776362 76.1216884396
304 17 2 12.0714369819 60.2714460461 76.9899676145
305 17 2 12.5759402141 60.0490377513 77.8671569043
306 17 2 13.2081000423 60.0989354065 78.6865067605
307 18 1 54.9641697961 53.2993930006 33.797086664
308 18 1 58.1915901553 54.1478098127 29.3945944381
309 18 2 54.4921570555 53.028239795 33.6919129986
310 18 2 53.5867295021 52.6826379605 33.3255657198
311 18 2 52.7285486175 52.5626697834 32.7576016215
312 18 2 52.001561389 52.6663978208 32.0267253837
313 18 2 51.4777568526 52.9714953179 31.1864906926
314 18 2 51.2106044849 53.437281232 30.3004189654
315 18 2 51.2301806036 54.0084282004 29.4362095421
316 18 2 51.5404269909 54.6200054821 28.6595690726
317 18 2 52.1187916112 55.2033972209 28.0282225305
318 18 2 52.9182841683 55.6925565978 27.5866517362
319 18 2 53.8717591457 56.0300258215 27.3620409581
320 18 2 54.898035941 56.1721732527 27.3617991389
321 18 2 55.9092982604 56.0931703117 27.5728845903
322 18 2 56.8190983397 55.7873456839 27.9629937083
323 18 2 57.5502364265 55.2697022452 28.4835053601
324 18 2 58.0417973316 54.5745495902 29.0739125703
325 19 1 16.2359104419 46.949692224 46.3799731053
326 19 1 11.9626869913 44.9985259817 49.2869479414
327 19 2 16.3368382648 47.4906468606 46.4475248914
328 19 2 16.2956041495 48.5227389029 46.5283690326
329 19 2 15.956904321 49.5013858069 46.5597166732
330 19 2 15.3480757991 50.3397012126 46.5574533536
331 19 2 14.5210771125 50.9635896012 46.5405281632
332 19 2 13.5477524169 51.3184999031 46.5292265816
333 19 2 12.5132830929 51.3743976826 46.5433215119
334 19 2 11.5084236903 51.1285026961 46.6002710326
335 19 2 10.621229894 50.605542304 46.713627141
336 19 2 9.92903248317 49.8554976381 46.8918005247
337 19 2 9.49138883764 48.9490479545 47.1372939499
338 19 2 9.34465444197 47.9711284089 47.446474141
339 19 2 9.49866918009 47.0131884436 47.8099029437
340 19 2 9.9358604562 46.164856416 48.213197588
341 19 2 10.61284489 45.5057702124 48.6383416388
342 19 2 11.4643825956 45.0983184686 49.0653271461
343 20 1 59.1510167062 17.4604690681 48.4963274475
344 20 1 61.2272206293 21.982873519 46.0973221715
345 20 2 59.1027946131 17.0202946323 48.1627068789
346 20 2 58.9045199735 16.3508749454 47.3971910651
347 20 2 58.5954502457 15.9348251616 46.5000687256
348 20 2 58.2196772003 15.811491958 45.5424500382
349 20 2 57.8273724372 15.9935416776 44.600959261
350 20 2 57.470214378 16.4658058263 43.7507506361
351 20 2 57.1966779162 17.1866636404 43.0586582816
352 20 2 57.0476160603 18.091835708 42.57710444
353 20 2 57.0525362911 19.1002428656 42.3393213311
354 20 2 57.2269110337 20.1213963474 42.356322124
355 20 2 57.5707673875 21.063645594 42.6158971161
356 20 2 58.0686846559 21.8425319561 43.0837266149
357 20 2 58.6911999018 22.3884868748 43.7065090861
358 20 2 59.3974934153 22.6531728698 44.4168194464
359 20 2 60.1391093216 22.6138893713 45.1392546791
360 20 2 60.864372204 22.2756418162 45.7973066179
361 21 1 25.8676314777 50.1957189592 21.1229580983
362 21 1 25.9443697705 44.9487060253 19.3964131187
363 21 2 25.51294092 50.300558335 21.5359773492
364 21 2 24.6964594898 50.3860616074 22.1680353179
365 21 2 23.7478167761 50.308242205 22.5772677135
366 21 2 22.7551183025 50.058302752 22.737048881
367 21 2 21.8104851572 49.6431341553 22.6434899781
368 21 2 21.0016574024 49.0846875164 22.315793433
369 21 2 20.4039968017 48.4179733475 21.794502694
370 21 2 20.0736177972 47.6878704568 21.1378068027
371 21 2 20.0422728279 46.9450353651 20.4162366186
372 21 2 20.3144581795 46.2412850993 19.7062361194
373 21 2 20.8670041605 45.6248742087 19.0831947371
374 21 2 21.6511869572 45.1360964921 18.6145758126
375 21 2 22.5971696793 44.8036123258 18.3537674925
376 21 2 23.6203678057 44.6418363465 18.3352165421
377 21 2 24.6291588377 44.649623596 18.5712886151
378 21 2 25.5332334447 44.810373881 19.0511411571
379 22 1 13.257701327 36.2100071133 24.5077641498
380 22 1 13.4878530768 31.5419931612 27.4530429102
381 22 2 13.0580677415 36.6490883631 24.7811424146
382 22 2 12.5100088308 37.3222543691 25.3467650538
383 22 2 11.7855739467 37.7483146153 25.9526666766
384 22 2 10.958337996 37.8859002052 26.5611080447
385 22 2 10.1112459276 37.7199359361 27.1341184288
386 22 2 9.32905252277 37.2630143635 27.636956539
387 22 2 8.69059722281 36.5542480236 28.0412771006
388 22 2 8.26161812509 35.65570443 28.3277144504
389 22 2 8.08876013097 34.6467487857 28.4876476645
390 22 2 8.19532338779 33.6168100572 28.5239863332
391 22 2 8.57913954268 32.6572297626 28.450905359
392 22 2 9.21276938214 31.8529364374 28.2925529526
393 22 2 10.046003843 31.2747046243 28.0808495876
394 22 2 11.0104404345 30.9727039638 27.8525785352
395 22 2 12.025717942 30.971926365 27.6460331668
396 22 2 13.0068411376 31.2699080599 27.4975266159
397 23 1 7.51522786117 74.3524655359 3.84725004472
398 23 1 7.88059647809 77.0728146625 8.64143375672
399 23 2 7.70924550766 74.6279633246 3.406977732
400 23 2 7.93434470836 75.3155763827 2.66537902426
401 23 2 7.97623320014 76.1792979341 2.09469483227
402 23 2 7.84647407127 77.1492293076 1.75433368517
403 23 2 7.57227563189 78.1457910903 1.6827107822
404 23 2 7.19401144923 79.086976579 1.8937465499
405 23 2 6.76154040489 79.8958264714 2.37559783247
406 23 2 6.329662191 80.5074435013 3.09173736374
407 23 2 5.95312246482 80.8749076508 3.98428312988
408 23 2 5.68162292833 80.9735527842 4.97927416024
409 23 2 5.55529115098 80.803214901 5.99341187217
410 23 2 5.60102304898 80.3882470834 6.94165251413
411 23 2 5.83003139439 79.7752997785 7.7449586764
412 23 2 6.23682380098 79.0290687345 8.33750333973
413 23 2 6.7997033405 78.226398156 8.67266983214
414 23 2 7.48274615971 77.4492765606 8.72730081404
415 24 1 63.491195807 7.121013134 65.4881511985
416 24 1 58.6406185105 7.34726820513 62.8540100491
417 24 2 63.8869086259 6.83560232237 65.2248384157
418 24 2 64.4598694934 6.1367378849 64.7181290773
419 24 2 64.7683431859 5.28360245669 64.2176753499
420 24 2 64.7809675779 4.35877879032 63.7507794064
421 24 2 64.4933464168 3.45138382968 63.3416847177
422 24 2 63.9284500298 2.6489459387 63.0093663248
423 24 2 63.1345216398 2.02942692495 62.7658013145
424 24 2 62.1806801245 1.65411602923 62.6148771398
425 24 2 61.1506200158 1.56204357509 62.5520372895
426 24 2 60.1349829665 1.76642345919 62.5646966014
427 24 2 59.2230960061 2.25344873986 62.6333883665
428 24 2 58.4948296208 2.98355010302 62.7335386675
429 24 2 58.0133177723 3.89500249932 62.8377062256
430 24 2 57.8192034055 4.90955121747 62.9180835999
431 24 2 57.9269339533 5.939544592 62.9490317609
432 24 2 58.3234444913 6.89592321828 62.90941702
433 25 1 18.2396489173 31.3969793652 46.4303826511
434 25 1 12.9874558026 32.1107978286 44.8738089302
435 25 2 18.3337187309 31.4638722096 46.9726536218
436 25 2 18.3923161169 31.7903466041 47.9541987441
437 25 2 18.2810918495 32.3449942229 48.8222109517
438 25 2 17.9944429421 33.0693713378 49.5052630803
439 25 2 17.5427558949 33.8895638306 49.9487865829
440 25 2 16.9514599934 34.7229242675 50.1200453061
441 25 2 16.2587094972 35.4856049919 50.0111193038
442 25 2 15.5119059811 36.1002006138 49.6396267186
443 25 2 14.7633778078 36.5028033049 49.0471179353
444 25 2 14.0656105384 36.6488278256 48.2952883747
445 25 2 13.4664630129 36.5170753509 47.4603551203
446 25 2 13.0048051454 36.1116656865 46.6261099354
447 25 2 12.7069750351 35.4616617596 45.8762818674
448 25 2 12.5843783191 34.6184206104 45.2869055694
449 25 2 12.6324485788 33.6509123357 44.9193909442
450 25 2 12.8310635571 32.6394336486 44.8149257963
451 26 1 46.5182948043 52.6334330312 43.5121703515
452 26 1 47.1605826078 47.942594197 46.3584817312
453 26 2 46.2639694481 53.0413305254 43.7884308
454 26 2 45.6290581182 53.6369193478 44.3502239728
455 26 2 44.8443678113 53.9669353166 44.9408173979
456 26 2 43.9886499199 53.9991375298 45.5240497006
457 26 2 43.1471298109 53.7284300128 46.0644304531
458 26 2 42.4037387613 53.1773262037 46.5303750315
459 26 2 41.8334638466 52.3938969129 46.8970834704
460 26 2 41.4955130694 51.4473887976 47.1488009133
461 26 2 41.4279187079 50.4219127141 47.2802536257
462 26 2 41.6440707758 49.4087772377 47.2971296817
463 26 2 42.1314965581 48.4981661306 47.2155605114
464 26 2 42.8529974657 47.7709183326 47.0606505643
465 26 2 43.7500395877 47.2911597079 46.8641891055
466 26 2 44.7480889003 47.1004581443 46.6617527095
467 26 2 45.7634048445 47.2140347508 46.4894625503
468 26 2 46.7106730541 47.6193764946 46.380692053
469 27 1 36.5142324637 56.9974872024 41.0579409529
470 27 1 32.8301041762 54.1586326043 44.0388962349
471 27 2 36.3472597118 57.5016559913 40.8988324351
472 27 2 35.844687114 58.3277996775 40.5268681831
473 27 2 35.1273726433 58.9423213213 40.1011063827
474 27 2 34.2509659257 59.2951531283 39.6758170782
475 27 2 33.28561742 59.3600796334 39.3052272474
476 27 2 32.3095843915 59.13712717 39.0385781568
477 27 2 31.402097971 58.6525614704 38.9156371528
478 27 2 30.6361414492 57.9564936139 38.9630729734
479 27 2 30.0717980449 57.1183125362 39.1920249646
480 27 2 29.7507744802 56.2203604133 39.5970877585
481 27 2 29.6925995238 55.3504273921 40.1568039582
482 27 2 29.8928439968 54.5937497534 40.8356199225
483 27 2 30.3235244794 54.0252408525 41.5871263846
484 27 2 30.935653926 53.7026629673 42.3582885334
485 27 2 31.6637067026 53.6613624207 43.0942799944
486 27 2 32.4315910735 53.9110478583 43.7434801071
487 28 1 21.2851450915 32.3895986873 43.5504364893
488 28 1 19.046099552 35.4143814256 47.5946119948
489 28 2 21.429515596 32.6751837123 43.0976893867
490 28 2 21.4801633495 33.2929073232 42.2674470384
491 28 2 21.2485028798 33.9836608792 41.5308040022
492 28 2 20.7623972324 34.7007664275 40.9625514674
493 28 2 20.0729014505 35.3951441016 40.6221322794
494 28 2 19.2496090445 36.01978562 40.5482228829
495 28 2 18.3743087296 36.5340389655 40.7552080674
496 28 2 17.5335296028 36.9073137077 41.2318698322
497 28 2 16.8106542471 37.121869239 41.942409877
498 28 2 16.2783186319 37.1744317839 42.8297125214
499 28 2 15.9917915384 37.0764927945 43.8205506466
500 28 2 15.9839369583 36.8532615355 44.8322601512
501 28 2 16.2622186282 36.5413673271 45.7802745636
502 28 2 16.8080197305 36.1855208803 46.5858330495
503 28 2 17.5783397663 35.8344390353 47.1831592515
504 28 2 18.5097139361 35.5364043516 47.5254566286
505 29 1 4.37831963016 42.3071780176 3.03434822698
506 29 1 7.73303266169 45.5642437938 0.0923397180173
507 29 2 4.47944179776 42.2991741698 3.57940953884
508 29 2 4.88950660394 42.2427071282 4.52920337917
509 29 2 5.55695095023 42.1524705205 5.31649329427
510 29 2 6.42548857537 42.0550452454 5.87291105159
511 29 2 7.42050410321 41.9776674294 6.1511317987
512 29 2 8.4558540348 41.9457459265 6.1291875971
513 29 2 9.44171849811 41.9805463694 5.81246974106
514 29 2 10.2927880893 42.0972528639 5.23323735564
515 29 2 10.9360395967 42.3035839979 4.44767706358
516 29 2 11.3173918718 42.599089313 3.53078172485
517 29 2 11.406635181 42.9751903627 2.5695150379
518 29 2 11.200184742 43.4159626144 1.65488503099
519 29 2 10.7214074676 43.8995869285 0.873648923615
520 29 2 10.0184921336 44.4003383145 0.300405437878
521 29 2 9.16005710111 44.8909306949 -0.00920467567285
522 29 2 8.2288959358 45.3450039585 -0.0235701437301
523 30 1 55.128344429 49.7671306813 70.8020720628
524 30 1 59.2781921837 51.5438588928 73.9864073995
525 30 2 54.6418738659 49.7111263209 71.0620556986
526 30 2 53.8604085932 49.4847042551 71.7035345266
527 30 2 53.3071353624 49.1314694718 72.505135382
528 30 2 53.0326111237 48.6987678049 73.405610657
529 30 2 53.0619856012 48.2411882824 74.3347006052
530 30 2 53.3927089635 47.8155874823 75.2195373289
531 30 2 53.994764234 47.4759072074 75.9912864938
532 30 2 54.8134032574 47.2682578345 76.5914213939
533 30 2 55.7741368486 47.2267154764 76.9770575053
534 30 2 56.7895242823 47.3702160356 77.1248612949
535 30 2 57.7671432815 47.7008292471 77.0331770104
536 30 2 58.618014061 48.2035700279 76.7221775971
537 30 2 59.2647095972 48.8477643271 76.2320259884
538 30 2 59.6484128942 49.5898449835 75.6192143611
539 30 2 59.7342779957 50.3773227562 74.9514150253
540 30 2 59.5146061009 51.1535705786 74.3013122734
541 31 1 71.1936402972 22.3778829399 36.8778675926
542 31 1 71.8717744547 23.5168674774 31.5149542659
543 31 2 70.6887138252 22.1951291064 37.0158236809
544 31 2 69.6732284845 22.0429085124 37.1539121481
545 31 2 68.6424077416 22.1387954157 37.1131162051
546 31 2 67.6858404981 22.4629307715 36.8821067011
547 31 2 66.8863476474 22.9746512984 36.4668919432
548 31 2 66.3124331721 23.6161958283 35.8902700546
549 31 2 66.0120401886 24.3179700821 35.1897509875
550 31 2 66.0081810605 25.0048900023 34.4141375906
551 31 2 66.2968398829 25.6032254643 33.6190773599
552 31 2 66.8473385216 26.0473205799 32.8619903186
553 31 2 67.6051328432 26.2855780566 32.196835335
554 31 2 68.4967842665 26.2851621521 31.6691919161
555 31 2 69.4366534935 26.0349915651 31.3121057573
556 31 2 70.3347063021 25.5467494662 31.1430767156
557 31 2 71.1047199251 24.8538186077 31.1624637445
558 31 2 71.6721420249 24.0082385755 31.3534521762
559 32 1 6.20395710291 16.738976379 30.6626726922
560 32 1 1.11446940315 18.6222396707 31.6963193384
561 32 2 6.59961218471 17.1272787245 30.6549310679
562 32 2 7.19098248308 17.9626891369 30.494243096
563 32 2 7.5383891827 18.8830188031 30.1690479213
564 32 2 7.60456105424 19.8159456623 29.7232690861
565 32 2 7.37786067127 20.6879994532 29.2118210111
566 32 2 6.87334513059 21.4312583317 28.6956036926
567 32 2 6.13139363806 21.9895397661 28.2359518309
568 32 2 5.21402705197 22.323521424 27.889044336
569 32 2 4.19925484755 22.4143252984 27.70078377
570 32 2 3.17396476177 22.2652383872 27.7026124518
571 32 2 2.22600320839 21.9014130921 27.9086465732
572 32 2 1.43616831213 21.3675746448 28.314389546
573 32 2 0.870845375529 20.7239445213 28.8971418541
574 32 2 0.575956036092 20.0407514153 29.6180700534
575 32 2 0.572772631735 19.3918300808 30.4257463369
576 32 2 0.855979284056 18.8478914914 31.2608360412
577 33 1 6.07278490207 60.4008943455 56.5585341255
578 33 1 5.80450195114 55.189044682 58.3703394144
579 33 2 6.1112046287 60.4551649491 56.0081159079
580 33 2 6.35751999277 60.4006391717 55.0032250222
581 33 2 6.80036986432 60.1366234434 54.1045428216
582 33 2 7.38775896243 59.6731675563 53.3878610936
583 33 2 8.05451764199 59.0384997399 52.912382769
584 33 2 8.7282419327 58.2764537335 52.7153257329
585 33 2 9.33589296741 57.442473458 52.8085305145
586 33 2 9.81045427963 56.5985594506 53.1773810536
587 33 2 10.0970401754 55.8076176817 53.7821369165
588 33 2 10.1578984175 55.1277258436 54.5615555293
589 33 2 9.97585124115 54.6068397243 55.4384742755
590 33 2 9.55586106105 54.2784221655 56.3268436621
591 33 2 8.92457816086 54.1583930141 57.1395705005
592 33 2 8.12791159089 54.2436780706 57.7964562186
593 33 2 7.22684468093 54.5124892941 58.2315067456
594 33 2 6.29187657273 54.9263107243 58.3989476956