LAMMPS input file for bananas

4320 atoms

2 atom types

0 63.4960420787 xlo xhi
0 63.4960420787 ylo yhi
0 63.4960420787 zlo zhi

Masses

 1 1
 2 1

Atoms

1 1 1 28.8990341579 52.169321867 33.8515968321
2 1 1 25.5464393239 54.5376228145 37.5487916555
3 1 2 28.6519853877 51.811180522 33.5079643682
4 1 2 28.1046938153 51.0510158316 33.0651646512
5 1 2 27.4761997393 50.2414229068 32.9134922947
6 1 2 26.8069505173 49.4648671545 33.0635477963
7 1 2 26.1411082296 48.8008027313 33.4984299655
8 1 2 25.5225244238 48.3184305101 34.1752764226
9 1 2 24.9907431627 48.0703906051 35.0291703897
10 1 2 24.5773966894 48.0879643662 35.9790576815
11 1 2 24.3033222328 48.3782231674 36.9351345778
12 1 2 24.1766627495 48.9233838704 37.8070331925
13 1 2 24.1921247153 49.6824297098 38.5120582649
14 1 2 24.3314606159 50.5948488614 38.9827246114
15 1 2 24.5651321588 51.5861499338 39.1729082203
16 1 2 24.8550026098 52.5746516592 39.0620503315
17 1 2 25.1578128547 53.478927923 38.6570313128
18 1 2 25.4291243514 54.2252295362 37.9915435329
19 2 1 18.7120777992 16.6917558393 10.0717430331
20 2 1 14.6993843839 13.3167328843 11.8111402474
21 2 2 18.8807619644 17.0657334986 10.4446611887
22 2 2 18.9658260916 17.808893891 11.1615480255
23 2 2 18.7453519678 18.5411961216 11.8605291518
24 2 2 18.2388431843 19.1857061642 12.4941739012
25 2 2 17.4918746272 19.6734920159 13.0210068432
26 2 2 16.5719384482 19.9499066647 13.4092881581
27 2 2 15.5622923353 19.979569019 13.6399066369
28 2 2 14.5543707976 19.7495887993 13.7081216164
29 2 2 13.6394511533 19.2707414527 13.6239950786
30 2 2 12.900333847 18.5764859997 13.4114745274
31 2 2 12.4037954098 17.7199153341 13.1062102379
32 2 2 12.1945019573 16.7689169475 12.7523058292
33 2 2 12.2909379926 15.7999851657 12.398298337
34 2 2 12.6837215931 14.8912488957 12.0927341932
35 2 2 13.3364595474 14.1153503844 11.8797443475
36 2 2 14.1890645 13.5328240722 11.7950218501
37 3 1 38.5629556343 40.6382435582 52.9164253916
38 3 1 42.1621656007 42.1622449155 56.8204103483
39 3 2 38.0539583369 40.5196332914 53.1014522651
40 3 2 37.2190775497 40.1622684088 53.6001650312
41 3 2 36.5999009519 39.6689624204 54.2685358516
42 3 2 36.2504899426 39.0979700345 55.0593137301
43 3 2 36.2003175087 38.5146268673 55.9140905942
44 3 2 36.4515818408 37.9853942754 56.7686250348
45 3 2 36.9790059737 37.5718015811 57.5586977394
46 3 2 37.7321417147 37.3248378394 58.22596491
47 3 2 38.6399678612 37.2803043213 58.7232761453
48 3 2 39.6173635936 37.455551324 59.0189720728
49 3 2 40.5728670104 37.8478967379 59.0997700166
50 3 2 41.4170116364 38.4348705133 58.9719746778
51 3 2 42.0704810523 39.1762627455 58.6609034774
52 3 2 42.4713383746 40.0177887003 58.2085789416
53 3 2 42.5806716371 40.8960367223 57.6698984603
54 3 2 42.3861405124 41.7442480376 57.1076305374
55 4 1 6.49685469401 46.9857382364 15.0494798851
56 4 1 6.21066224586 47.8356695335 20.5005074702
57 4 2 6.91605073406 46.6622101922 14.8852061115
58 4 2 7.82832214225 46.2031298958 14.7106891483
59 4 2 8.83480539162 45.9583541426 14.7336306079
60 4 2 9.84427223544 45.9370583915 14.9659519229
61 4 2 10.7652224803 46.1280484963 15.4004901116
62 4 2 11.5142239843 46.5007810226 16.011650665
63 4 2 12.0235172736 47.0081472 16.7577404174
64 4 2 12.2471916374 47.5907667607 17.5847677674
65 4 2 12.1653697667 48.1824002919 18.4313638679
66 4 2 11.7860195176 48.7159867819 19.2343762323
67 4 2 11.1442276628 49.1297560512 19.9346249154
68 4 2 10.2990018259 49.3728589401 20.4822966065
69 4 2 9.32789209417 49.410002073 20.8414849801
70 4 2 8.31992253546 49.2246647559 20.9934634615
71 4 2 7.36747689236 48.820604793 20.9383921035
72 4 2 6.55787805093 48.221515973 20.6953029987
73 5 1 4.0974016797 45.0499781501 12.7935401875
74 5 1 -0.34814112631 45.4189961559 16.052215675
75 5 2 4.54299763064 44.8213272371 13.031331265
76 5 2 5.33161991314 44.5500934156 13.6461134385
77 5 2 5.99311429641 44.4911493462 14.4413497485
78 5 2 6.45923191528 44.6360217992 15.3552405237
79 5 2 6.67953197446 44.9576602137 16.3151710552
80 5 2 6.62597929223 45.412902284 17.2443302337
81 5 2 6.29549963226 45.9464080879 18.0687116761
82 5 2 5.71025991214 46.4957041736 18.7238592102
83 5 2 4.91564774798 46.9968778468 19.1607418822
84 5 2 3.97613449458 47.3904026428 19.3502229968
85 5 2 2.96939885374 47.6265640042 19.2857158498
86 5 2 1.9792466682 47.6699906301 18.9837840879
87 5 2 1.08797224308 47.5028784757 18.4826319771
88 5 2 0.368857439907 47.1266135432 17.8386221856
89 5 2 -0.120507769187 46.5616455514 17.1211384774
90 5 2 -0.343474473505 45.8456239988 16.4062615676
91 6 1 14.7615809958 38.3615763816 5.27769161048
92 6 1 13.0910003982 37.5962374292 0.0679499838675
93 6 2 14.5642233439 37.993867451 5.64268707296
94 6 2 13.988308122 37.3618878934 6.22781398833
95 6 2 13.1906326807 36.8384157348 6.63172090912
96 6 2 12.2443117932 36.4549082825 6.80735923968
97 6 2 11.2360088679 36.2300654351 6.72848645625
98 6 2 10.2580368102 36.1681252363 6.3920580429
99 6 2 9.39994394801 36.2584775889 5.81850499092
100 6 2 8.74035194099 36.4766313368 5.0498715687
101 6 2 8.33978962638 36.786446568 4.14598309891
102 6 2 8.23517597729 37.1434286715 3.17899304035
103 6 2 8.43645503697 37.498783902 2.22680639296
104 6 2 8.92568954583 37.8038667992 1.36597886532
105 6 2 9.65869587475 38.0146140917 0.664739026417
106 6 2 10.5690712447 38.0955609462 0.176769453966
107 6 2 11.5742461628 38.0230734925 -0.0636862890917
108 6 2 12.5830104105 37.7875029876 -0.0449448638173
109 7 1 38.6817139683 27.9338539361 35.471013158
110 7 1 36.1284234236 25.2736042639 39.5846210802
111 7 2 38.3480454951 28.1131654201 35.0661745114
112 7 2 37.6449373923 28.2269179547 34.3137455327
113 7 2 36.8821520253 28.0495646928 33.6353987811
114 7 2 36.1137696913 27.6029593779 33.1028743284
115 7 2 35.3943808362 26.9334973584 32.7746209341
116 7 2 34.7741102812 26.107886776 32.6904685963
117 7 2 34.2940484796 25.2070682961 32.8679981544
118 7 2 33.9825062311 24.3188375832 33.3009388424
119 7 2 33.8524342291 23.5298429604 33.9597398523
120 7 2 33.9002426386 22.9176876466 34.7942638118
121 7 2 34.1061283008 22.5438564301 35.7383566711
122 7 2 34.4358797378 22.4481114949 36.715877468
123 7 2 34.8439954371 22.6448682035 37.6476383733
124 7 2 35.2778311936 23.1218811756 38.4586224496
125 7 2 35.6823984873 23.8413604214 39.0848212447
126 7 2 36.0053765407 24.7434157983 39.4790689906
127 8 1 8.78776195205 46.9587293956 -1.26401772831
128 8 1 12.0329520982 47.1879466502 3.2007545421
129 8 2 8.64102908443 47.4514034574 -1.47167928555
130 8 2 8.30645647812 48.4179242303 -1.63705394475
131 8 2 7.93413119646 49.3748314503 -1.49866150224
132 8 2 7.57412180519 50.2450782864 -1.06678919045
133 8 2 7.27537430953 50.9595167698 -0.378474147473
134 8 2 7.08125085669 51.4632004469 0.505872419039
135 8 2 7.02557739197 51.720392601 1.50797155203
136 8 2 7.12956051434 51.7178235594 2.53881146271
137 8 2 7.39985455155 51.4659001876 3.50676071726
138 8 2 7.82795503598 50.9977573321 4.32592019703
139 8 2 8.39097386413 50.3662376675 4.92395257369
140 8 2 9.05372548608 49.6390752277 5.24867566332
141 8 2 9.77193397431 48.8927216301 5.27281869305
142 8 2 10.4962686562 48.2053777146 4.99650795905
143 8 2 11.1768404728 47.6498657466 4.44725531505
144 8 2 11.7677492336 47.2869918615 3.67745054033
145 9 1 13.3608897551 37.0191490165 28.287895311
146 9 1 8.53028261894 34.5134369214 27.3367735236
147 9 2 13.6851621668 37.0782097075 27.8420917379
148 9 2 14.2483577804 36.9590064927 26.9806677392
149 9 2 14.7000520007 36.5553344174 26.1401493289
150 9 2 14.9862001832 35.9080280558 25.3834699363
151 9 2 15.0678467621 35.0801285963 24.7659212885
152 9 2 14.9246759464 34.1511378056 24.330113717
153 9 2 14.5568634496 33.2097716548 24.1020923397
154 9 2 13.9850604741 32.3458740961 24.0889631187
155 9 2 13.2485114092 31.6422280266 24.27824517
156 9 2 12.4014768097 31.1670098485 24.6390083635
157 9 2 11.508287692 30.9675753721 25.1246925209
158 9 2 10.6374819331 31.0661434606 25.6773512523
159 9 2 9.85555722691 31.4577708398 26.2329336143
160 9 2 9.22090999678 32.1108026643 26.7271221821
161 9 2 8.77851271784 32.9697577725 27.1011954115
162 9 2 8.55581479599 33.9603856455 27.3073799503
163 10 1 15.349628107 28.4936646546 24.625959889
164 10 1 12.2567956289 27.5615327796 29.1074226514
165 10 2 15.7499299858 28.8713769599 24.6928434322
166 10 2 16.3229503307 29.7081513704 24.9047544542
167 10 2 16.6282263656 30.6442042195 25.2273402838
168 10 2 16.643914995 31.5904366693 25.6490606046
169 10 2 16.3745682418 32.4568220387 26.1493392564
170 10 2 15.850718342 33.1606114946 26.7004396968
171 10 2 15.1260948131 33.6338763866 27.2699931135
172 10 2 14.2727271524 33.8296997625 27.8239487546
173 10 2 13.3743795406 33.7264527225 28.3296775637
174 10 2 12.518915961 33.329765836 28.7589462314
175 10 2 11.7902916316 32.6720159299 29.0904905858
176 10 2 11.260900712 31.8093750279 29.3119537647
177 10 2 10.9849777689 30.8166904202 29.4210125113
178 10 2 10.9936544406 29.780662533 29.4255889318
179 10 2 11.2921218708 28.791942417 29.3431284177
180 10 2 11.8591575504 27.9368691456 29.1990095442
181 11 1 34.9085139308 43.2992167315 41.5565304385
182 11 1 35.1273862631 43.6167323705 47.0673624793
183 11 2 34.7542363273 43.7667329552 41.3015626177
184 11 2 34.2883767614 44.6342341015 40.9792791444
185 11 2 33.6372525067 45.4353638285 40.891652797
186 11 2 32.8689725108 46.1104463455 41.0573617416
187 11 2 32.0623241539 46.6112947282 41.4719933094
188 11 2 31.2995919898 46.9056030281 42.1084461998
189 11 2 30.6590577287 46.9798908731 42.9194006915
190 11 2 30.2078650686 46.8407321674 43.8416317088
191 11 2 29.9958997264 46.5141558979 44.8017716179
192 11 2 30.0512424888 46.0432736616 45.722997491
193 11 2 30.3776097227 45.4843501585 46.5320333107
194 11 2 30.9540146392 44.9016748149 47.1658288829
195 11 2 31.7366801829 44.3617019738 47.5773066938
196 11 2 32.6630291932 43.9269937593 47.7396528995
197 11 2 33.6573881459 43.650517706 47.6487613357
198 11 2 34.6378845921 43.5708189102 47.3236077842
199 12 1 34.6927663351 4.10273105746 24.5361183475
200 12 1 32.5767244507 0.222018405916 27.8497911016
201 12 2 34.7019615926 4.61372839747 24.7510107713
202 12 2 34.4931073352 5.52385854847 25.1998905086
203 12 2 34.0119440727 6.29989143753 25.6894871601
204 12 2 33.3068245509 6.8675315387 26.1935121463
205 12 2 32.44651453 7.17147777167 26.6843617836
206 12 2 31.5139249692 7.18046404742 27.1356332864
207 12 2 30.5985549149 6.89010908867 27.5245313101
208 12 2 29.7883339013 6.3233157716 27.8339456859
209 12 2 29.1616074086 5.52818358988 28.0540109674
210 12 2 28.7799958819 4.57362451442 28.1830056391
211 12 2 28.6827781923 3.54308185138 28.2275090282
212 12 2 28.8833114726 2.52692460782 28.2018016166
213 12 2 29.3678136508 1.61421059829 28.1265634128
214 12 2 30.0966196486 0.884569063018 28.0269890248
215 12 2 31.0077967476 0.400942675526 27.9304912387
216 12 2 32.022789591 0.203850486151 27.8642024167
217 13 1 12.8535497985 48.362940809 37.3710495864
218 13 1 9.3200839863 48.7278767521 33.1402775324
219 13 2 12.8752581261 48.8111971547 37.6965900372
220 13 2 12.9429860007 49.7627245909 38.1008900303
221 13 2 13.0249144557 50.7899054208 38.2087662652
222 13 2 13.0951328437 51.8044777276 38.0108712841
223 13 2 13.1287978586 52.7193288273 37.5257278587
224 13 2 13.1043979365 53.4564353578 36.7980406885
225 13 2 13.0057139775 53.9539748992 35.8946216871
226 13 2 12.823297673 54.1719609222 34.8983002546
227 13 2 12.5553326938 54.0958874537 33.9003735997
228 13 2 12.2078002439 53.7380512574 32.9922852428
229 13 2 11.7939338895 53.1364310164 32.2572901832
230 13 2 11.333013355 52.3512256779 31.7628664294
231 13 2 10.8486072274 51.4593674801 31.5545645577
232 13 2 10.3664247429 50.5475097842 31.6518559001
233 13 2 9.91197245853 49.7041288523 32.0463577836
234 13 2 9.50822939757 49.0114594725 32.7025975889
235 14 1 43.8887281148 1.40821927 16.27504227
236 14 1 38.67010749 1.23206586932 18.0786386261
237 14 2 44.2653274709 1.53508717379 16.6616416079
238 14 2 44.8234980894 1.95144556544 17.4288060371
239 14 2 45.1424396417 2.558789691 18.2052462541
240 14 2 45.186225922 3.29242987181 18.9355235014
241 14 2 44.9440103926 4.07616488135 19.5684066528
242 14 2 44.4310148161 4.82922748333 20.0615417937
243 14 2 43.6871418326 5.47364614944 20.3853126669
244 14 2 42.7733379409 5.94135195576 20.5255401159
245 14 2 41.7660383878 6.18038288319 20.4847744764
246 14 2 40.7502003 6.15962001669 20.2820631207
247 14 2 39.8115590683 5.87162395114 19.9512143399
248 14 2 39.028813797 5.33331287327 19.5377158093
249 14 2 38.4664540898 4.58442051416 19.0945885078
250 14 2 38.1688819956 3.68387452581 18.6775539975
251 14 2 38.1563648798 2.70442538323 18.3399555524
252 14 2 38.4231881087 1.72601537302 18.1278960617
253 15 1 6.91805712856 30.4259981328 12.3802781514
254 15 1 11.6522488596 31.2204184453 15.114197697
255 15 2 6.47527234243 30.6746257219 12.6027810573
256 15 2 5.72208633314 31.0352303887 13.2160714623
257 15 2 5.13189197616 31.246157125 14.0410748224
258 15 2 4.76596715652 31.304825728 15.0086010662
259 15 2 4.66514819036 31.2225339166 16.0364695427
260 15 2 4.84610770382 31.0234275752 17.0369995675
261 15 2 5.29983496777 30.7422999199 17.9250022829
262 15 2 5.99245720165 30.4214201906 18.6255453949
263 15 2 6.86832698691 30.1066809226 19.080783051
264 15 2 7.85509438047 29.8434149643 19.2552283358
265 15 2 8.87030141864 29.6722635096 19.1389878077
266 15 2 9.82889794017 29.6254717617 18.7486632602
267 15 2 10.6509936811 29.7239498687 18.1258385124
268 15 2 11.2691400587 29.9753670199 17.3332891555
269 15 2 11.6344779297 30.3734524194 16.4492607251
270 15 2 11.7211909704 30.8985668525 15.5603368296
271 16 1 27.617067738 10.5404995423 37.1737724153
272 16 1 24.2185120053 6.41931629639 35.7653482439
273 16 2 27.4861240635 10.8003099055 37.6457193586
274 16 2 27.0279307051 11.299068794 38.4297783033
275 16 2 26.3248613885 11.7626307169 39.0333128017
276 16 2 25.4350183042 12.1341399503 39.4122721478
277 16 2 24.4335275726 12.3651311271 39.5430750603
278 16 2 23.4056916986 12.4199467253 39.4247590535
279 16 2 22.4392144765 12.278987156 39.0790681653
280 16 2 21.6162070234 11.9404972138 38.5484710467
281 16 2 21.0057035705 11.4207260585 37.8922900569
282 16 2 20.6573691773 10.7524461483 37.1812941897
283 16 2 20.5969728942 9.9819661171 36.4912486682
284 16 2 20.8240389826 9.16490986702 35.8960091476
285 16 2 21.3118902769 8.36114659787 35.4607899695
286 16 2 22.0100797371 7.62933388979 35.236220049
287 16 2 22.8489885614 7.02157122161 35.2537281843
288 16 2 23.7461717543 6.57865124257 35.522678406
289 17 1 37.6445957549 36.1059316345 18.4239884034
290 17 1 42.0035584253 38.6027633741 16.1254526165
291 17 2 37.767237195 35.6722210161 18.746844044
292 17 2 38.1231440861 34.7932463667 19.1641974456
293 17 2 38.6282097139 33.9011704887 19.3143951508
294 17 2 39.2524559725 33.0833147288 19.1924173828
295 17 2 39.95504176 32.4202354685 18.8180524313
296 17 2 40.687985536 31.9783816249 18.2340930035
297 17 2 41.4005387104 31.8040380097 17.5024357828
298 17 2 42.0438112421 31.9191065923 16.6984397116
299 17 2 42.5752278352 32.3191101938 15.9040572253
300 17 2 42.9624085639 32.9736005698 15.2003645067
301 17 2 43.1861202157 33.8289336867 14.6601716087
302 17 2 43.2420293478 34.8131592319 14.3413860123
303 17 2 43.1410972682 35.8425786922 14.2817345152
304 17 2 42.9085809425 36.8293742502 14.4953245341
305 17 2 42.5817308885 37.6896131431 14.971358252
306 17 2 42.2063958911 38.3508979097 15.6751168103
307 18 1 4.36520316231 38.6679815828 51.4079042241
308 18 1 1.71230639597 43.4444024815 50.5918569173
309 18 2 4.83099254881 38.6062456008 51.1136075983
310 18 2 5.56388258476 38.5529987025 50.3832056718
311 18 2 6.06588442928 38.5994946717 49.478063537
312 18 2 6.29854586606 38.7592594517 48.4811714255
313 18 2 6.24796433708 39.0354948363 47.4838823338
314 18 2 5.92605412361 39.4207866349 46.5775854423
315 18 2 5.3694603913 39.8977804564 45.8453762354
316 18 2 4.6362190813 40.4407635154 45.3544825706
317 18 2 3.80046708933 41.0180082837 45.1501370385
318 18 2 2.94568488576 41.5946643701 45.2514541332
319 18 2 2.15708749393 42.13593504 45.6496880176
320 18 2 1.51385736843 42.6102488451 46.3090296825
321 18 2 1.08192712612 42.9921372762 47.1698708428
322 18 2 0.907969964196 43.26455615 48.1542370725
323 18 2 1.01514552313 43.4204391407 49.172894966
324 18 2 1.40098894727 43.4633418569 50.133485524
325 19 1 22.2365665023 18.9527632817 12.5349209249
326 19 1 19.3375489206 14.6875126314 10.5546873498
327 19 2 22.7871571056 18.894610564 12.5057689601
328 19 2 23.7726689217 18.5784464961 12.5532742622
329 19 2 24.624609054 18.0113899133 12.7148132795
330 19 2 25.2674230457 17.2363097385 12.9587208559
331 19 2 25.6446177291 16.315035689 13.2458241609
332 19 2 25.7239104262 15.322722663 13.5330131889
333 19 2 25.5001714289 14.3410005716 13.7771701209
334 19 2 24.9958915582 13.4505339904 13.9390993984
335 19 2 24.2591321858 12.7236697992 13.9871002938
336 19 2 23.3591445686 12.2178429574 13.8998563472
337 19 2 22.3800577819 11.9703414605 13.6683783044
338 19 2 21.4132105787 11.9949076394 13.2968234636
339 19 2 20.5488261068 12.2804855836 12.8021167488
340 19 2 19.8677883098 12.7922288576 12.212408048
341 19 2 19.4342695721 13.4746766608 11.5645064266
342 19 2 19.2898815771 14.2568089309 10.9005250788
343 20 1 49.4250934134 43.7406914038 56.0436095133
344 20 1 45.5591322021 45.5879468407 59.5307261339
345 20 2 49.7650955867 44.1304867341 55.8440106391
346 20 2 50.1995591822 44.9706093733 55.4210622421
347 20 2 50.3408698699 45.8975416562 54.9802926382
348 20 2 50.178560743 46.8380966118 54.5772267206
349 20 2 49.7298390293 47.7178455989 54.2639527918
350 20 2 49.0380176982 48.4679022779 54.084374855
351 20 2 48.1685675998 49.0312014164 54.0702108807
352 20 2 47.2031499713 49.3677002325 54.238101799
353 20 2 46.2321732338 49.4580281876 54.5880947232
354 20 2 45.3465525064 49.3052525593 55.1036386552
355 20 2 44.6294229361 48.9345988669 55.7530930653
356 20 2 44.1485621511 48.3911516329 56.4926118416
357 20 2 43.9502125113 47.7357450492 57.2701397457
358 20 2 44.054866241 47.0394181034 58.0301571091
359 20 2 44.4553976171 46.3769395647 58.718740302
360 20 2 45.1177124598 45.8199930102 59.2884767286
361 21 1 31.7045152977 51.555377648 60.3747884843
362 21 1 27.7005798412 48.0208683959 61.7867857464
363 21 2 31.6873665507 52.0441849211 60.6358535304
364 21 2 31.4303532924 52.9561755167 61.0549804202
365 21 2 30.8979257934 53.7886663554 61.3663162084
366 21 2 30.1331974552 54.4605664821 61.5591653714
367 21 2 29.2004552801 54.9054223561 61.6336321247
368 21 2 28.1793002826 55.0774749134 61.6006109244
369 21 2 27.1573920694 54.9558303833 61.4807934657
370 21 2 26.2224589012 54.5463646994 61.3027826913
371 21 2 25.4543014954 53.8811879244 61.1004857089
372 21 2 24.9175194047 53.0157175034 60.9100232489
373 21 2 24.6556229401 52.023627112 60.7664373571
374 21 2 24.6870673226 50.9901314977 60.7004974049
375 21 2 25.0035705388 50.0042193835 60.7358955442
376 21 2 25.5708682247 49.1505423833 60.8870872306
377 21 2 26.3318367708 48.501699234 61.1579736473
378 21 2 27.2116999859 48.1116186144 61.5415461228
379 22 1 33.361303378 18.1554533802 14.5790516196
380 22 1 30.1269381827 14.6794685349 17.4029500243
381 22 2 33.1542205299 18.6654447209 14.5126655176
382 22 2 32.5767424605 19.5023953609 14.3139629345
383 22 2 31.7916210176 20.1242659771 14.0488002148
384 22 2 30.8618968682 20.4773606875 13.758305563
385 22 2 29.8637908295 20.5324818161 13.4859161214
386 22 2 28.8797565451 20.2875911819 13.2734187908
387 22 2 27.9909650557 19.7679958746 13.1571414663
388 22 2 27.2699062759 19.0240415806 13.1646418463
389 22 2 26.7737817322 18.1265237082 13.3121956226
390 22 2 26.5392907965 17.1602345753 13.603312994
391 22 2 26.5792856367 16.2162348166 14.0284187216
392 22 2 26.881599776 15.3835534499 14.5657248856
393 22 2 27.4101570344 14.741073119 15.1832167967
394 22 2 28.1082597763 14.3503401517 15.8415710486
395 22 2 28.9037567486 14.2499547764 16.4977397424
396 22 2 29.7156194743 14.4520528146 17.1088741865
397 23 1 56.6389831189 15.7133569402 43.664785764
398 23 1 53.5629634987 12.4838266677 46.9245754162
399 23 2 56.5752093492 16.2577587675 43.7480992968
400 23 2 56.2271743752 17.2239386075 43.8852786862
401 23 2 55.6090561315 18.0469725918 44.003578765
402 23 2 54.7754148006 18.6526804706 44.1113289765
403 23 2 53.8004549183 18.9866906878 44.2178203558
404 23 2 52.7712618287 19.0193962028 44.3324586777
405 23 2 51.7798640879 18.7486530934 44.4639071444
406 23 2 50.9148453068 18.1999759686 44.6192967588
407 23 2 50.253269992 17.4242123799 44.8035763519
408 23 2 49.853659322 16.4929082029 45.0190615104
409 23 2 49.7506570979 15.4917864224 45.2652235173
410 23 2 49.9518720538 14.512933711 45.5387375426
411 23 2 50.437184341 13.6464069751 45.833785693
412 23 2 51.1605793983 12.9720249088 46.1425872975
413 23 2 52.0543420564 12.5520927331 46.4561080941
414 23 2 53.0352285945 12.4257232414 46.7648836794
415 24 1 17.9848815465 9.31592321762 30.740995898
416 24 1 20.9039698971 10.0156003678 35.37859939
417 24 2 17.8372048929 9.78497117201 30.4849349473
418 24 2 17.4841508842 10.7223642425 30.2201763602
419 24 2 17.0727174598 11.6725772044 30.2557836021
420 24 2 16.6560041876 12.5599207166 30.5910768337
421 24 2 16.2875918794 13.3144358207 31.1980606391
422 24 2 16.016658843 13.8782705124 32.0239757325
423 24 2 15.8834984114 14.2109527974 32.9961078263
424 24 2 15.9158463129 14.2930796056 34.0284153444
425 24 2 16.1263526334 14.1280853286 35.0293718813
426 24 2 16.5114287952 13.7419287849 35.9103085898
427 24 2 17.0515746463 13.1807271421 36.5934961094
428 24 2 17.7131558467 12.5065524609 37.0192293893
429 24 2 18.451469549 11.7917739924 37.1512696449
430 24 2 19.2148189435 11.1124619145 36.9801474254
431 24 2 19.9492252837 10.5414537383 36.5240257298
432 24 2 20.6033479056 10.1417153638 35.8270444971
433 25 1 39.6259168258 52.7369239078 7.36625308917
434 25 1 40.8836151796 49.6969464999 11.8041268224
435 25 2 39.6370097636 53.2851866437 7.44790177058
436 25 2 39.5222251547 54.2579160895 7.78564713319
437 25 2 39.2538459042 55.0870063832 8.34603260232
438 25 2 38.8714773016 55.6987861039 9.08965201861
439 25 2 38.4251144608 56.0393911085 9.96039793818
440 25 2 37.9705854 56.0796741045 10.8905756762
441 25 2 37.564462466 55.8178613481 11.8070734962
442 25 2 37.2589059169 55.2797143155 12.6380265501
443 25 2 37.0969096534 54.5161816138 13.3193671663
444 25 2 37.10838244 53.5987551514 13.800664447
445 25 2 37.3074218009 52.6129538416 14.0497209099
446 25 2 37.6910290683 51.6505287825 14.0555072025
447 25 2 38.239382703 50.8011003892 13.829167398
448 25 2 38.9176449749 50.1439897328 13.4030032431
449 25 2 39.6791373287 49.7409886367 12.8275299398
450 25 2 40.4695950097 49.6307275171 12.16687182
451 26 1 10.4558393387 58.7456939886 56.8714912735
452 26 1 7.54481302951 54.4345514747 58.7310522736
453 26 2 10.2006580693 59.2359903935 56.9147757174
454 26 2 9.54642313109 60.039008077 56.8905011051
455 26 2 8.70733941479 60.6293968613 56.7461764308
456 26 2 7.75092210079 60.9515947628 56.5118594554
457 26 2 6.75538101335 60.9744846802 56.2258104979
458 26 2 5.80249200412 60.6942306349 55.931005109
459 26 2 4.97014330179 60.1346274104 55.6712169645
460 26 2 4.32523620829 59.344931721 55.4870280125
461 26 2 3.91758722385 58.3953725944 55.4121295362
462 26 2 3.77538740624 57.3707501832 55.4702512844
463 26 2 3.90263283111 56.3627064579 55.6729985678
464 26 2 4.27876036046 55.461372286 56.0187944663
465 26 2 4.86052191766 54.7471522444 56.4930235607
466 26 2 5.58592643403 54.2833959572 57.0693640892
467 26 2 6.37989016912 54.1106239467 57.712187106
468 26 2 7.16108039292 54.242834296 58.3798039639
469 27 1 39.4073313831 20.6299707736 23.3123122963
470 27 1 34.5328593261 18.0304493304 23.3110905806
471 27 2 39.4360034033 21.0727651072 22.9799079018
472 27 2 39.402810314 21.7518603237 22.1981292139
473 27 2 39.2451312614 22.1906981831 21.272921853
474 27 2 38.959880837 22.3569814168 20.2908668175
475 27 2 38.5556014215 22.2432553822 19.3437266196
476 27 2 38.0516845702 21.8675875328 18.5200813774
477 27 2 37.4766035244 21.2719206186 17.8972549735
478 27 2 36.8653179514 20.5182497164 17.5342671907
479 27 2 36.2560874645 19.6829715439 17.4664542154
480 27 2 35.6869843613 18.8499211037 17.7022478397
481 27 2 35.1924234357 18.1027303464 18.2224069252
482 27 2 34.8000251613 17.5172053421 18.9817711821
483 27 2 34.5280981591 17.1544167593 19.9133774084
484 27 2 34.3839704157 17.0551334375 20.934563007
485 27 2 34.3633213568 17.2361064154 21.9545004604
486 27 2 34.4505756559 17.6885421195 22.8824760162
487 28 1 18.102866579 36.5140442689 34.5011800133
488 28 1 15.187113018 36.9002488606 29.8249402583
489 28 2 18.4193171871 36.9545129562 34.6161927785
490 28 2 19.0845959844 37.7487494706 34.6096741747
491 28 2 19.7827404293 38.4540211729 34.3119559
492 28 2 20.4388541562 39.0205305964 33.7444773879
493 28 2 20.9818717869 39.4111280851 32.9532659966
494 28 2 21.3510363503 39.6046978859 32.0047417383
495 28 2 21.5014371175 39.5980827926 30.9796632726
496 28 2 21.4081030952 39.4063719173 29.9657669703
497 28 2 21.0682790643 39.0615253577 29.0497699782
498 28 2 20.5016767117 38.60946112 28.3094661823
499 28 2 19.7486779618 38.105869815 27.8066355037
500 28 2 18.8666542726 37.6111386081 27.5814128232
501 28 2 17.9247373803 37.1848470905 27.6486297949
502 28 2 16.9975181268 36.8803367585 27.99646298
503 28 2 16.1582477031 36.7398490789 28.587511522
504 28 2 15.4721609997 36.790675292 29.3622061345
505 29 1 28.6199014458 15.4080861433 33.8923509114
506 29 1 30.764843757 10.4205735855 34.9131016297
507 29 2 28.1645199727 15.5306366748 34.1838825034
508 29 2 27.240052541 15.5500264739 34.6512517522
509 29 2 26.2980432099 15.289686839 34.995187365
510 29 2 25.4284436264 14.7655543024 35.2014194177
511 29 2 24.7146054824 14.0176094145 35.2682292977
512 29 2 24.2256832313 13.1062326231 35.2066063504
513 29 2 24.0103308436 12.1067007573 35.0392462306
514 29 2 24.0922671282 11.1023257458 34.7984822536
515 29 2 24.4681138259 10.1768609568 34.5233382999
516 29 2 25.1077035291 9.40686730267 34.2559718933
517 29 2 25.9568293601 8.85473491754 34.0378316548
518 29 2 26.9421857831 8.56299646304 33.9058793717
519 29 2 27.978050208 8.55045039001 33.8892210296
520 29 2 28.9740963755 8.81044750995 34.0064538796
521 29 2 29.8436273537 9.31149705076 34.2639713484
522 29 2 30.5114777324 10.0001369565 34.6553802946
523 30 1 24.7999961545 26.4031645083 54.6587851211
524 30 1 22.9728927281 23.9696794085 50.0481632108
525 30 2 24.6106741912 26.9175385256 54.7422006627
526 30 2 24.3285479935 27.9122972282 54.6765505043
527 30 2 24.1466233123 28.8693944163 54.3239623677
528 30 2 24.06333745 29.7001131396 53.7104317009
529 30 2 24.0681370447 30.3272555073 52.8857381665
530 30 2 24.1424399803 30.6921790692 51.9189083579
531 30 2 24.2613290967 30.7601419184 50.8919242098
532 30 2 24.3958233231 30.5234693232 49.8922505646
533 30 2 24.5155192243 30.0022532586 49.004862985
534 30 2 24.5913621928 29.2425210761 48.3045024592
535 30 2 24.5982946991 28.3120402341 47.848862959
536 30 2 24.5175402177 27.2941414747 47.673332789
537 30 2 24.3383146581 26.2801234497 47.7877690372
538 30 2 24.0588093049 25.3609310922 48.1755991272
539 30 2 23.6863556784 24.6188662293 48.7953313649
540 30 2 23.2367572851 24.1200859903 49.5843367952
541 31 1 60.3476866432 51.6993605157 49.7359008162
542 31 1 57.0438252589 47.2719205114 49.7522110196
543 31 2 60.0881443822 52.1842358332 49.665791407
544 31 2 59.5045292074 52.9805487035 49.3515794538
545 31 2 58.8264637767 53.5684336838 48.8338261024
546 31 2 58.0996838548 53.8916370195 48.1699130357
547 31 2 57.3743654021 53.9180299807 47.4305440041
548 31 2 56.7005511699 53.6425373096 46.6933003674
549 31 2 56.1235894375 53.0875998172 46.0355697614
550 31 2 55.6800006379 52.3011289628 45.5274924216
551 31 2 55.3941486174 51.352139853 45.2255680884
552 31 2 55.2760199368 50.3244606989 45.1675062065
553 31 2 55.3203136225 49.3090920987 45.3687888101
554 31 2 55.5069243366 48.3959125769 45.8212593765
555 31 2 55.8027749241 47.6654863963 46.4938662719
556 31 2 56.1648313079 47.1817203412 47.3354930241
557 31 2 56.5440249291 46.9860387846 48.279617453
558 31 2 56.8897252158 47.0936079678 49.250374989
559 32 1 18.5361187706 46.0540521442 44.3092605939
560 32 1 22.1695409951 44.5789376905 48.200310754
561 32 2 18.7588988251 46.1807889516 43.8176424321
562 32 2 19.3154433045 46.5554205222 43.0281112801
563 32 2 20.0208802983 47.0675573071 42.4681786302
564 32 2 20.8250029866 47.6575304015 42.1875214349
565 32 2 21.6686096121 48.2585763291 42.2103614358
566 32 2 22.4888995621 48.8029223541 42.533257416
567 32 2 23.2251974768 49.2279637858 43.125418858
568 32 2 23.8244836457 49.4819702278 43.9315124173
569 32 2 24.2462266127 49.5288006663 44.8767054087
570 32 2 24.4660775102 49.3511976262 45.8734866055
571 32 2 24.4780893931 48.9523601441 46.8296426538
572 32 2 24.2952592868 48.355652185 47.6566630737
573 32 2 23.9483435435 47.6024730787 48.2778077525
574 32 2 23.4830544823 46.748484082 48.6351016011
575 32 2 22.9558938343 45.8585350037 48.6946188283
576 32 2 22.42900276 45.0007533179 48.4495751861
577 33 1 11.9953132593 9.45022818638 7.33982253695
578 33 1 9.904073334 14.5535509109 7.6573186871
579 33 2 11.6421906116 9.04433663223 7.47375546794
580 33 2 10.9456375606 8.417391394 7.91557389952
581 33 2 10.2436413483 8.01669888272 8.56372267913
582 33 2 9.583750321 7.88526608828 9.35158006713
583 33 2 9.00967504985 8.04155769705 10.1997902576
584 33 2 8.55730422917 8.47781308507 11.0234964481
585 33 2 8.25143351794 9.16075367817 11.7400753101
586 33 2 8.1035054817 10.0346162051 12.2766678849
587 33 2 8.11056663331 11.0262353705 12.5768204828
588 33 2 8.25553663542 12.0517126764 12.6056302859
589 33 2 8.50876512755 13.0240635456 12.352926647
590 33 2 8.8307342772 13.8611457337 11.8341981166
591 33 2 9.17566072466 14.493146375 11.0891807031
592 33 2 9.4956686139 14.8689452387 10.1782360418
593 33 2 9.74515334885 14.9607742013 9.17684959296