LAMMPS input file for 5 monomers

90 atoms

2 atom types

0 17.4716092947 xlo xhi
0 17.4716092947 ylo yhi
0 17.4716092947 zlo zhi

Masses

 1 1
 2 1

Atoms

1 1 1 14.3753308783 4.89340869881 10.9672616153
2 1 1 16.7773399126 9.85854872894 11.2766612624
3 1 2 14.0956362076 4.79805632719 10.4981556524
4 1 2 13.4739097342 4.82768084639 9.66988722286
5 1 2 12.7832674112 5.13131847938 8.95976935887
6 1 2 12.0979361012 5.68975727431 8.41947580993
7 1 2 11.491658582 6.46056083446 8.08520129321
8 1 2 11.0309720897 7.38193628234 7.9743624417
9 1 2 10.7691436274 8.37836651535 8.0840103247
10 1 2 10.7413148203 9.36749338782 8.39109923499
11 1 2 10.9612988505 10.2676244359 8.85458724341
12 1 2 11.4203214222 11.0051789272 9.41917706102
13 1 2 12.0878205156 11.521394548 10.0203562392
14 1 2 12.9142320331 11.7776834312 10.5902773069
15 1 2 13.8355074342 11.7591493367 11.0639418863
16 1 2 14.7789515892 11.4759454046 11.3851251213
17 1 2 15.6698487457 10.9623487233 11.5115004226
18 1 2 16.4382726696 10.2736360644 11.4184974236
19 2 1 14.0613120264 12.2704268081 9.4622485957
20 2 1 10.6784078032 8.99026589913 12.3457351119
21 2 2 14.0642788211 12.8012920132 9.62210765897
22 2 2 13.8362170377 13.7720983176 9.90312892788
23 2 2 13.3226595685 14.6360424185 10.1547423766
24 2 2 12.5690743029 15.3127077544 10.373107396
25 2 2 11.642807022 15.7387477227 10.5574138826
26 2 2 10.6269430113 15.8736595529 10.709956077
27 2 2 9.61273405877 15.7034760265 10.8359234502
28 2 2 8.69128109814 15.2420385512 10.9429276971
29 2 2 7.94523060244 14.5297355535 11.040308951
30 2 2 7.44124157883 13.6298211821 11.1382844551
31 2 2 7.22390977827 12.6226498607 11.2470172884
32 2 2 7.311702912 11.5983521975 11.375690028
33 2 2 7.69527736902 10.6486198208 11.531667782
34 2 2 8.33832986127 9.85834793245 11.7198268793
35 2 2 9.18090637132 9.29789733699 11.9421104053
36 2 2 10.1448668008 9.01668124234 12.1973510951
37 3 1 14.975878972 5.92239047426 9.3268559518
38 3 1 13.7540235078 2.02101953718 13.0422785519
39 3 2 14.7907425399 6.42988952274 9.4515588199
40 3 2 14.2404763423 7.2664472241 9.71769475374
41 3 2 13.4719752739 7.8914502083 10.0213843795
42 3 2 12.5579984101 8.24850808858 10.3539591438
43 3 2 11.5845645564 8.30565295826 10.70411769
44 3 2 10.6431118639 8.05825317995 11.058955947
45 3 2 9.82216348632 7.52943554699 11.4051433003
46 3 2 9.1992589312 6.76797733797 11.7301376423
47 3 2 8.83388654098 5.84386039821 12.0233285516
48 3 2 8.76206128961 4.8418924816 12.2770044048
49 3 2 8.99304211388 3.85397725047 12.4870552703
50 3 2 9.50848798614 2.97073750243 12.6533475174
51 3 2 10.2641296499 2.27325514461 12.7797359965
52 3 2 11.1938046443 1.82568079446 12.87371268
53 3 2 12.2154878356 1.66938662252 12.9457237886
54 3 2 13.2387677885 1.81919538958 13.0082176466
55 4 1 6.50158462743 11.8539945479 18.0847822299
56 4 1 7.2148218462 16.2516169083 14.818254822
57 4 2 6.9653809952 11.5755774434 18.2062665221
58 4 2 7.86458523679 11.0609445386 18.2003744675
59 4 2 8.74440252619 10.6069922514 17.8949258312
60 4 2 9.53732870137 10.2693746505 17.3198324062
61 4 2 10.1837794931 10.0931422086 16.5295833876
62 4 2 10.6375214719 10.1086355725 15.5982788275
63 4 2 10.8698861014 10.3287200943 14.6128756139
64 4 2 10.8723827992 10.747613189 13.6652615823
65 4 2 10.6574728302 11.3414114013 12.8438801853
66 4 2 10.257433496 12.0702691421 12.2256691081
67 4 2 9.72141614505 12.8820305073 11.8690476046
68 4 2 9.11096615865 13.7169831487 11.8085917379
69 4 2 8.4944132538 14.5133008957 12.0518828651
70 4 2 7.9406434122 15.2126790447 12.5788166165
71 4 2 7.51282010717 15.7656486776 13.3434353555
72 4 2 7.26262712185 16.136085621 14.2781170939
73 5 1 6.75776074143 11.3294985154 2.19646239207
74 5 1 4.70257353358 7.13272492329 5.14286494747
75 5 2 6.69703105162 11.8294576245 2.42826916962
76 5 2 6.35921862676 12.6965442107 2.88378385512
77 5 2 5.76038808994 13.4036392674 3.34732304462
78 5 2 4.95809822027 13.8823676139 3.79520712161
79 5 2 4.0284525712 14.085169085 4.20518339125
80 5 2 3.05916283514 13.9896335127 4.55845435403
81 5 2 2.14155415701 13.6005433529 4.84139104759
82 5 2 1.36224109147 12.9494377778 5.04677529023
83 5 2 0.795232917724 12.0917379642 5.17445759886
84 5 2 0.495187891506 11.1016956018 5.23137081401
85 5 2 0.4924312912 10.0656250497 5.23089818993
86 5 2 0.790191349748 9.07403601352 5.19165354672
87 5 2 1.36430500985 8.2133838276 5.13578467041
88 5 2 2.16542032204 7.55818928235 5.08695460146
89 5 2 3.123494743 7.16424625339 5.06818481181
90 5 2 4.15417932616 7.06353623885 5.09975685932
