LAMMPS input file for bananas

648 atoms

2 atom types

0 42.5063427673 xlo xhi
0 42.5063427673 ylo yhi
0 42.5063427673 zlo zhi

Masses

 1 1
 2 1

Atoms

1 1 1 29.1705898887 34.0754262722 24.8761098671
2 1 1 28.8993426797 33.9050823775 30.3911256395
3 1 2 28.6801250529 34.0669105601 24.617743237
4 1 2 27.7237648444 33.8654235843 24.2739000149
5 1 2 26.78356253 33.4488945934 24.1475148144
6 1 2 25.9345021792 32.8662246027 24.2617173269
7 1 2 25.2432605153 32.1814579355 24.6177083166
8 1 2 24.76212951 31.4679447542 25.1946501742
9 1 2 24.5242501101 30.8016553892 25.9515662094
10 1 2 24.5405915286 30.2542558464 26.8310755668
11 1 2 24.7989514306 29.8865756419 27.7646233371
12 1 2 25.2650681431 29.7430633547 28.6787291543
13 1 2 25.8857435151 29.8477352571 29.5016847342
14 1 2 26.5936917871 30.201986296 30.1700898934
15 1 2 27.3136725077 30.784462947 30.6346313062
16 1 2 27.9693485003 31.5530095311 30.8645772823
17 1 2 28.4902437921 32.4485105924 30.8505788786
18 1 2 28.8181673112 33.4002791136 30.6055220303
19 2 1 35.2550659451 17.7951095272 29.4403808155
20 2 1 30.7216914372 14.8783788208 30.6483496144
21 2 2 35.2923703643 18.2855245274 29.6962774665
22 2 2 35.1433116317 19.2309508788 30.0930148097
23 2 2 34.7168069396 20.1345380507 30.3670111265
24 2 2 34.0446629702 20.9098012837 30.5106753707
25 2 2 33.1810757694 21.4819522028 30.5282959159
26 2 2 32.197690922 21.7947155773 30.4356496822
27 2 2 31.177073248 21.8154586579 30.2585641118
28 2 2 30.20518124 21.5381655648 30.0305630666
29 2 2 29.3635321766 20.9839856186 29.7898112182
30 2 2 28.7217720399 20.1993056367 29.5756354397
31 2 2 28.3313274707 19.2515218986 29.4249402664
32 2 2 28.2207183673 18.2228971552 29.3688441462
33 2 2 28.3929583736 17.203062599 29.4298430761
34 2 2 28.8252801928 16.2808482205 29.6197601524
35 2 2 29.4712107663 15.5361861918 29.9386679266
36 2 2 30.2648071682 15.032825263 30.3748817933
37 3 1 27.9483193367 7.99074542468 24.6513096323
38 3 1 28.3611862002 3.64703780195 21.2631337067
39 3 2 27.739012963 7.87735861753 25.1520249825
40 3 2 27.1782335585 7.5601090506 25.9633998545
41 3 2 26.4492987002 7.11736695611 26.5516884073
42 3 2 25.6265025029 6.57235148159 26.8669891549
43 3 2 24.7926942916 5.95760371984 26.8842827203
44 3 2 24.031727107 5.31202067525 26.6057122846
45 3 2 23.4208147247 4.67730990583 26.0603882418
46 3 2 23.0234938265 4.09418799076 25.3017348643
47 3 2 22.8838328009 3.59866932303 24.4026208232
48 3 2 23.022415028 3.2187834938 23.4487174034
49 3 2 23.4344627588 2.97202047003 22.5306897955
50 3 2 24.0902725948 2.86373643078 21.7359332057
51 3 2 24.937922873 2.8866655658 21.1406070163
52 3 2 25.9080061869 3.0215823347 20.8026930617
53 3 2 26.919955686 3.23905382358 20.756710739
54 3 2 27.8893885289 3.50212247646 21.0105706574
55 4 1 26.3310780917 11.8169684229 24.3892286744
56 4 1 21.5706983964 12.9332659268 26.9603482944
57 4 2 26.6535864209 12.2575826301 24.2931605419
58 4 2 27.0590268099 13.1720981476 24.0234765224
59 4 2 27.174161627 14.1399546579 23.6721251875
60 4 2 26.9858877194 15.0832394414 23.2871358837
61 4 2 26.5087568285 15.9262794257 22.919603968
62 4 2 25.7836492377 16.6025385838 22.6190336035
63 4 2 24.8740476439 17.0606825154 22.4288255867
64 4 2 23.8602508792 17.2692574402 22.3823214813
65 4 2 22.8320548871 17.2195571255 22.4997646232
66 4 2 21.880568062 16.9264164367 22.7864549953
67 4 2 21.089906963 16.4268591785 23.2322661476
68 4 2 20.5295293139 15.7767234742 23.8125681962
69 4 2 20.2479031178 15.0455722701 24.4904727717
70 4 2 20.2680889277 14.3103528585 25.2201952951
71 4 2 20.5856379389 13.6483833382 25.9512281199
72 4 2 21.1689974857 13.1303052762 26.6329441692
73 5 1 40.5979940857 21.1232707175 34.5310091278
74 5 1 39.3291508009 16.2450039495 36.7916597245
75 5 2 40.4397738909 21.5654769866 34.8256301956
76 5 2 39.9362730725 22.2816998351 35.3796715012
77 5 2 39.2067570941 22.7927559505 35.9088955515
78 5 2 38.3210869983 23.0461795792 36.383042108
79 5 2 37.363356858 23.0129874797 36.7768710988
80 5 2 36.4242288264 22.6903206685 37.0724631833
81 5 2 35.5926695245 22.1017050081 37.2608530524
82 5 2 34.9478409707 21.2949068878 37.3428465924
83 5 2 34.5518851753 20.3375794451 37.3289474305
84 5 2 34.4442600614 19.3110961629 37.2383995576
85 5 2 34.6381429813 18.3031338938 37.0974332895
86 5 2 35.119229636 17.3996813499 36.9368744443
87 5 2 35.8470378735 16.677201461 36.7893346508
88 5 2 36.758597529 16.195661983 36.6862388862
89 5 2 37.7741899872 15.9930695974 36.6549611731
90 5 2 38.8046143208 16.082005704 36.716329511
91 6 1 32.5881804432 12.5703412058 25.6320220808
92 6 1 34.355439441 7.38978663346 26.3781058694
93 6 2 32.9291485566 12.8933106035 25.337381449
94 6 2 33.7283795248 13.4177569786 24.9378368706
95 6 2 34.6788708554 13.7872728177 24.7548770764
96 6 2 35.7004589251 13.9559096274 24.7918832027
97 6 2 36.706499833 13.8960285012 25.0321870805
98 6 2 37.6117667602 13.6008193318 25.4405904938
99 6 2 38.340218167 13.0849215337 25.9665734032
100 6 2 38.8319287757 12.3830897004 26.5488987128
101 6 2 39.0485515998 11.5470258155 27.1211938672
102 6 2 38.9768131688 10.6406667556 27.6180005329
103 6 2 38.62972337 9.7343566143 27.9807409506
104 6 2 38.0453896321 8.89843502665 28.1630571409
105 6 2 37.2835435346 8.19682589907 28.1350363106
106 6 2 36.4200964341 7.68121091622 27.8859373238
107 6 2 35.540220347 7.38631889363 27.4251697277
108 6 2 34.7305847482 7.3267603389 26.7814360973
109 7 1 18.1234398708 20.9450917064 35.6368329001
110 7 1 17.4200652657 17.9496602378 40.2249311492
111 7 2 17.9177877915 21.4594442865 35.6598597026
112 7 2 17.3393527116 22.3108890702 35.7777776816
113 7 2 16.5592758001 22.9560295741 35.9985122589
114 7 2 15.6527416086 23.3410878754 36.3200334487
115 7 2 14.7064609318 23.4359918491 36.7311248345
116 7 2 13.81076735 23.2371161616 37.2124059163
117 7 2 13.0513835654 22.76761271 37.7380985907
118 7 2 12.5016080062 22.0753003892 38.2783767561
119 7 2 12.2156338712 21.2283065266 38.8020848828
120 7 2 12.2236095645 20.3088572588 39.2795777556
121 7 2 12.528890749 19.4057828392 39.6854225563
122 7 2 13.1077344867 18.6064209972 40.0007169967
123 7 2 13.9114633439 17.9886563382 40.2148122122
124 7 2 14.8709022095 17.6138213695 40.3262833771
125 7 2 15.9026834213 17.5211062067 40.3430595733
126 7 2 16.9168455055 17.723986499 40.2817010764
127 8 1 10.9536866969 13.9413371122 13.1903509839
128 8 1 10.5677023038 8.67402885128 14.8103728338
129 8 2 11.1767883621 14.2848810199 13.5639615011
130 8 2 11.4357294274 14.8293096249 14.406574716
131 8 2 11.4807972126 15.1943492282 15.375163893
132 8 2 11.3216357878 15.3357296855 16.3891309627
133 8 2 10.9865041699 15.2295667855 17.3637417817
134 8 2 10.5197005887 14.8745392328 18.217849424
135 8 2 9.9775248213 14.2920090795 18.8812905057
136 8 2 9.42314661824 13.524074632 19.3012803907
137 8 2 8.92084794945 12.6297333024 19.4472243685
138 8 2 8.53016387449 11.6795041523 19.3135062807
139 8 2 8.30045608102 10.7490002687 18.9200004187
140 8 2 8.26641369889 9.91203683341 18.3102600351
141 8 2 8.44489147868 9.23390306627 17.5475475813
142 8 2 8.83337352621 8.76541128743 16.709068504
143 8 2 9.41020261962 8.53826551014 15.8789341751
144 8 2 10.1365542072 8.56217170464 15.140495365
145 9 1 33.3757610745 14.8794822146 34.1352012872
146 9 1 31.0224345358 17.8202094742 38.1764843072
147 9 2 33.0606046923 14.4730717379 33.9281057363
148 9 2 32.4444428784 13.6557616989 33.7674852814
149 9 2 31.827808154 12.8360024903 33.9131096875
150 9 2 31.2495076928 12.0966659545 34.3517440165
151 9 2 30.7448546033 11.5132936222 35.0434462591
152 9 2 30.3424492328 11.1472113038 35.9252079418
153 9 2 30.0615723221 11.0399394058 36.9166971813
154 9 2 29.9104276179 11.2094084565 37.9275807208
155 9 2 29.8853941231 11.6483247864 38.8657575648
156 9 2 29.9713561407 12.3248353267 39.6457537389
157 9 2 30.1430810296 13.1854309315 40.1965130137
158 9 2 30.367519092 14.159823593 40.4678734908
159 9 2 30.6068159655 15.167353006 40.4351397252
160 9 2 30.8217629465 16.124338539 40.1013336495
161 9 2 30.9753707593 16.9517065 39.4969191327
162 9 2 31.0362410291 17.5821974923 38.6770252798
163 10 1 5.44597203523 16.234509743 9.32063723145
164 10 1 4.92810175311 12.9081157516 4.94057964658
165 10 2 5.50389597286 15.9737213823 9.80645184264
166 10 2 5.42241090204 15.3672688518 10.6425293048
167 10 2 5.1110295062 14.6426248444 11.3143795113
168 10 2 4.60926348423 13.8509536782 11.7558969345
169 10 2 3.97397758484 13.0495290177 11.9219702641
170 10 2 3.27420653669 12.2965135325 11.792594183
171 10 2 2.5848627174 11.6456575251 11.374692798
172 10 2 1.97990809056 11.1413997346 10.7014885263
173 10 2 1.52561277041 10.8148168647 9.8294739609
174 10 2 1.27451467805 10.6807910247 8.83326272155
175 10 2 1.26063085039 10.7366532654 7.79878862301
176 10 2 1.49635687812 10.9624268466 6.81547303732
177 10 2 1.97133708075 11.3226480635 5.96807437485
178 10 2 2.65340839924 11.7695986687 5.32896258167
179 10 2 3.49153197282 12.2476552628 4.95152281241
180 10 2 4.42044519478 12.6983592187 4.86528951614
181 11 1 7.86838318826 19.4847734339 5.12808366985
182 11 1 6.10794246321 24.5242777877 6.55013689791
183 11 2 8.08817681536 19.1886718943 5.54208394495
184 11 2 8.62591833421 18.8300289258 6.3518118568
185 11 2 9.27542072326 18.7564599196 7.15566772641
186 11 2 9.96606926835 18.9794481319 7.89508023343
187 11 2 10.6234988931 19.483446421 8.51735189774
188 11 2 11.1763723371 20.2272943278 8.98046231398
189 11 2 11.5628823561 21.1479697417 9.25689819913
190 11 2 11.7363852876 22.1663331974 9.33616115473
191 11 2 11.6696524957 23.1943412256 9.22572456788
192 11 2 11.3573521886 24.14307128 8.95035243193
193 11 2 10.8165353973 24.9308267898 8.5498421747
194 11 2 10.0850818194 25.4905835837 8.07539722932
195 11 2 9.21824718615 25.776098964 7.5849599781
196 11 2 8.2836268501 25.7661266047 7.13793045931
197 11 2 7.35499464949 25.4663530976 6.78975221243
198 11 2 6.50557861999 24.9088796345 6.58685874768
199 12 1 27.5063388733 9.87950480767 4.95263296722
200 12 1 22.8150921234 7.39503314939 6.48155270756
201 12 2 27.8281971834 10.0487062653 5.37115379463
202 12 2 28.2306455351 10.4631157331 6.23124107412
203 12 2 28.3410931741 10.9594370752 7.13396830626
204 12 2 28.1472999076 11.4781129395 8.00967917682
205 12 2 27.6647562885 11.9575484191 8.79117984073
206 12 2 26.9352716924 12.3397252633 9.41986346148
207 12 2 26.0231635049 12.575490086 9.85105206755
208 12 2 25.0093947641 12.6290345654 10.0580688302
209 12 2 23.9841945955 12.4811592773 10.034669585
210 12 2 23.0388340689 12.1310236707 9.79561197091
211 12 2 22.257307084 11.596222682 9.37531031064
212 12 2 21.7086745512 10.9111830038 8.8246988374
213 12 2 21.4407696739 10.1240251837 8.20658917554
214 12 2 21.4758380802 9.29217756477 7.58994522888
215 12 2 21.8085101929 8.47714184598 7.04359730525
216 12 2 22.4062906528 7.73888736649 6.62996841783
217 13 1 26.7210071392 14.7640239352 32.9755032911
218 13 1 26.4838534596 14.3287986688 38.4775327495
219 13 2 27.2119548055 14.9256291824 32.774914854
220 13 2 28.1080565283 15.3990669611 32.559721027
221 13 2 28.9148428599 16.0488321168 32.5784578606
222 13 2 29.5709705049 16.8064584418 32.8410390407
223 13 2 30.028828305 17.5936484715 33.3351524926
224 13 2 30.2588768679 18.3294100882 34.027382594
225 13 2 30.2523410046 18.9374387368 34.8662559194
226 13 2 30.0220095642 19.353072381 35.7869329054
227 13 2 29.6010697646 19.5291852747 36.7171178037
228 13 2 29.0400822659 19.4404833479 37.583648245
229 13 2 28.4023727019 19.0858096941 38.3191637938
230 13 2 27.7582597176 18.4882500185 38.8682456717
231 13 2 27.1786456125 17.6930284382 39.1924680314
232 13 2 26.7285537857 16.7633854245 39.2739003694
233 13 2 26.4612020268 15.7748136031 39.1167418438
234 13 2 26.4131518569 14.808176803 38.7469385324
235 14 1 22.9221441224 29.4004932356 13.9076068026
236 14 1 21.2196080169 24.2084094118 14.7210116449
237 14 2 23.469372702 29.4767714836 13.9534772571
238 14 2 24.4638860128 29.5046185081 14.2426447327
239 14 2 25.3479246548 29.3680934461 14.7654129396
240 14 2 26.0477712842 29.0635973819 15.466088937
241 14 2 26.5064971671 28.6028415078 16.2727639645
242 14 2 26.6891510811 28.0117796801 17.1038677334
243 14 2 26.5859450259 27.3282427946 17.8756033407
244 14 2 26.2131463732 26.5984906013 18.5095851322
245 14 2 25.6115951397 25.872995252 18.9399833464
246 14 2 24.8429815282 25.2018408986 19.1195243203
247 14 2 23.9842230308 24.6301586564 19.023799358
248 14 2 23.1204536051 24.1940130238 18.653489518
249 14 2 22.3372639413 23.9171146993 18.0343035365
250 14 2 21.7129000998 23.808659415 17.2146345449
251 14 2 21.3111315917 23.86248977 16.2611491649
252 14 2 21.1754389583 24.0576564613 15.2527110244
253 15 1 39.6543753595 15.5209847494 34.7023609286
254 15 1 34.425511413 15.7728910766 36.4668767522
255 15 2 39.986309743 15.9197603535 34.8977558382
256 15 2 40.4341105603 16.807240252 35.1898240989
257 15 2 40.6171890132 17.8093077816 35.3790143664
258 15 2 40.5125991988 18.8363990428 35.466160928
259 15 2 40.1236154084 19.7966692895 35.461399082
260 15 2 39.4794336838 20.6043643329 35.3832413325
261 15 2 38.6325106765 21.1876368058 35.2568900239
262 15 2 37.653782364 21.4950948587 35.1119402147
263 15 2 36.6261984251 21.5004863893 34.9796821673
264 15 2 35.6371615984 21.2050918513 34.8902493236
265 15 2 34.7705611562 20.6376075447 34.8698717227
266 15 2 34.0991266217 19.8515300248 34.9384852031
267 15 2 33.6777986671 18.9202800338 35.1079143039
268 15 2 33.5387214184 17.9305103969 35.3807944898
269 15 2 33.6883126041 16.9742078484 35.7503319358
270 15 2 34.1066785965 16.140308687 36.200922766
271 16 1 34.0063558263 28.9580375828 39.05245438
272 16 1 31.1599539198 26.0120860232 42.7588484033
273 16 2 33.9170568206 29.5049244399 39.0703998835
274 16 2 33.523851438 30.4630986233 39.0976353849
275 16 2 32.8677474575 31.2642850557 39.1304664463
276 16 2 32.0071007612 31.8385535771 39.1848074126
277 16 2 31.0189107527 32.1366569886 39.2746120581
278 16 2 29.9918020678 32.1345198029 39.4106017379
279 16 2 29.0179466756 31.8354326606 39.5992881643
280 16 2 28.1846626498 31.2697523973 39.8423798822
281 16 2 27.56645536 30.492135099 40.1366265395
282 16 2 27.2182265059 29.576554346 40.4741151482
283 16 2 27.1702699745 28.6095587186 40.8429913319
284 16 2 27.4255106332 27.6823831257 41.2285398207
285 16 2 27.9592377359 26.8826329863 41.6145257087
286 16 2 28.7213572412 26.28629923 41.984674222
287 16 2 29.640957751 25.9508319269 42.3241541213
288 16 2 30.6327738944 25.9099038667 42.6209295294
289 17 1 31.1270727244 30.1748333257 2.70381032481
290 17 1 32.0764261303 34.4316024928 6.09447920132
291 17 2 30.6479459136 30.199853205 2.42597387483
292 17 2 29.6619093325 30.2869692844 2.12004469926
293 17 2 28.6365278312 30.4351982433 2.11162070047
294 17 2 27.6640560685 30.6497803567 2.39745841412
295 17 2 26.8319261219 30.9299079873 2.94749320728
296 17 2 26.2147782873 31.2687991989 3.70757958935
297 17 2 25.867657816 31.654315912 4.60442642882
298 17 2 25.8209976865 32.0700702572 5.55227724403
299 17 2 26.0778447205 32.4969182859 6.46072667723
300 17 2 26.6135818727 32.9147048899 7.24296070136
301 17 2 27.3781720091 33.3041008853 7.82366948652
302 17 2 28.3007186579 33.6483648168 8.14591168973
303 17 2 29.2959280332 33.9348688956 8.17630450614
304 17 2 30.2718833359 34.1562499896 7.90806642244
305 17 2 31.1384227241 34.3110807522 7.36163533372
306 17 2 31.8153573242 34.4039997221 6.58280568392
307 18 1 25.3394028886 20.8012472147 9.31371946331
308 18 1 23.0792196569 17.5288902608 13.1479394344
309 18 2 25.2098006668 21.3383846366 9.35919739316
310 18 2 24.7472990897 22.2604772829 9.45556883168
311 18 2 24.0365143818 23.0047651425 9.5750288337
312 18 2 23.1422721386 23.5058282664 9.72574899652
313 18 2 22.1461196197 23.72041599 9.91305163733
314 18 2 21.1388929341 23.6313891157 10.1389246783
315 18 2 20.2124375713 23.2492821051 10.4018404525
316 18 2 19.4512369307 22.6113428909 10.6968949472
317 18 2 18.9247118854 21.7781378273 11.016254791
318 18 2 18.6808932553 20.8280312288 11.3498712448
319 18 2 18.7420439261 19.8500426723 11.6863961178
320 18 2 19.1026296468 18.9357331009 12.0142161245
321 18 2 19.7298234621 18.1708592881 12.3225114046
322 18 2 20.5664978013 17.6275573376 12.6022417246
323 18 2 21.5364315038 17.3577676699 12.8469704706
324 18 2 22.5512571743 17.3885007922 13.0534513289
325 19 1 40.9445256261 9.5665532741 9.18463987899
326 19 1 40.5412498479 8.99393338883 14.6643721877
327 19 2 40.5751654333 9.91244478059 8.95811460055
328 19 2 39.7301507726 10.4312340573 8.65768504018
329 19 2 38.7516013077 10.7547651794 8.55176729461
330 19 2 37.7277237082 10.8674250582 8.66326807609
331 19 2 36.7508561824 10.7728209549 8.99527697926
332 19 2 35.9090520956 10.4934516891 9.5307848728
333 19 2 35.2780541421 10.0686569308 10.2342342364
334 19 2 34.9143906001 9.55103149522 11.0547601335
335 19 2 34.850222931 9.00163146545 11.9308264145
336 19 2 35.0904143478 8.48440909408 12.7958345722
337 19 2 35.6120865464 8.0603837261 13.584194018
338 19 2 36.3667050015 7.78208004871 14.2373004882
339 19 2 37.2845027595 7.68874060653 14.7088776666
340 19 2 38.2808395092 7.80274894847 14.9691951465
341 19 2 39.2639163203 8.12758942713 15.0077782784
342 19 2 40.1431428705 8.64752960936 14.8343629056
343 20 1 19.906515751 28.1485164494 34.3865174409
344 20 1 17.7435028861 23.1774738891 33.3243958512
345 20 2 20.1158480731 28.4112531885 33.945460786
346 20 2 20.6189371039 28.6982750768 33.0864090565
347 20 2 21.2159525965 28.6940601152 32.2396477284
348 20 2 21.8398213509 28.3943330923 31.4686733447
349 20 2 22.4210225638 27.8217539313 30.8300746712
350 20 2 22.8939244644 27.0238522987 30.3683747814
351 20 2 23.2027664747 26.0686954017 30.1119728975
352 20 2 23.3067416372 25.0386838449 30.0705558772
353 20 2 23.1837160601 24.0230410348 30.2342152824
354 20 2 22.8322463622 23.1096807052 30.574350507
355 20 2 22.2717112334 22.3771938152 31.0462756456
356 20 2 21.5405451188 21.8876851931 31.5932924945
357 20 2 20.6927350219 21.6811128478 32.1518584412
358 20 2 19.7928997332 21.7716459025 32.6573782039
359 20 2 18.9104000006 22.1463731176 33.0500915184
360 20 2 18.1130164823 22.766479715 33.2805201272
361 21 1 19.2166974895 21.6447751848 15.9358174591
362 21 1 14.3985217684 21.9609518154 18.6196963908
363 21 2 19.481153877 21.1601738748 15.9868662344
364 21 2 19.9376506475 20.2887425991 16.3119327531
365 21 2 20.296339899 19.5210028149 16.9080599676
366 21 2 20.5099282966 18.9144521303 17.7204184319
367 21 2 20.5443480606 18.5118961975 18.6744697995
368 21 2 20.381862153 18.3375470927 19.6827607945
369 21 2 20.0226809618 18.3948164495 20.652894344
370 21 2 19.4849431242 18.6660044976 21.4959513241
371 21 2 18.8030622386 19.11391335 22.1345953008
372 21 2 18.0245901569 19.6852374908 22.5101215387
373 21 2 17.2058827603 20.31542243 22.5878077813
374 21 2 16.4069632715 20.9345486736 22.3600790916
375 21 2 15.6860512983 21.4737046978 21.8471982871
376 21 2 15.0942562719 21.8712680509 21.0954190388
377 21 2 14.6709189589 22.0785220743 20.172769972
378 21 2 14.4400256556 22.0640962966 19.1628540396
379 22 1 37.7759304775 10.5973679484 7.50369426949
380 22 1 32.5653285966 12.427604881 7.37008337555
381 22 2 38.0595204968 10.6652628645 7.03215575634
382 22 2 38.4008799267 10.6901012105 6.05424634984
383 22 2 38.4651604869 10.5952081924 5.02453117763
384 22 2 38.2401932332 10.4063917418 4.03095778129
385 22 2 37.7401733867 10.1580206601 3.1581794761
386 22 2 37.0043664769 9.88989199419 2.47983942767
387 22 2 36.0935293944 9.64360364189 2.05185827417
388 22 2 35.0843725618 9.45876281483 1.90733710967
389 22 2 34.0625679842 9.36937594698 2.05354040784
390 22 2 33.1149404752 9.400749099 2.47123388463
391 22 2 32.3215538063 9.56718137856 3.11643765184
392 22 2 31.7484131092 9.87066161479 3.92443486638
393 22 2 31.4414486836 10.3006870819 4.81567049753
394 22 2 31.4223295736 10.8352207945 5.70300255539
395 22 2 31.6864884921 11.44270012 6.49964485033
396 22 2 32.2035381169 12.084913628 7.1270773222
397 23 1 31.4901513638 26.0604966521 25.6749681243
398 23 1 29.5173023925 20.9461958947 26.3603773165
399 23 2 31.2226103282 26.4541241543 25.9593284094
400 23 2 30.5316834875 27.0922443053 26.3939233759
401 23 2 29.6455805572 27.5452352439 26.6821434615
402 23 2 28.6412502688 27.7627708542 26.8142379017
403 23 2 27.6064174612 27.7159861442 26.7946863673
404 23 2 26.6315871967 27.4001082129 26.6417906542
405 23 2 25.801795466 26.8348912868 26.386006524
406 23 2 25.1888583851 26.0628161755 26.0671677424
407 23 2 24.8448263484 25.1452182595 25.730855338
408 23 2 24.7972397741 24.1566969337 25.4242430135
409 23 2 25.0466188688 23.1783160724 25.1917973887
410 23 2 25.5664162123 22.2902152736 25.0712249869
411 23 2 26.3054364836 21.5643053489 25.0900353862
412 23 2 27.1925027778 21.0577138454 25.2630337948
413 23 2 28.1429441908 20.8075780221 25.5909715962
414 23 2 29.0663133456 20.8276598881 26.060477862
415 24 1 40.8269384932 28.0022542962 25.0719356678
416 24 1 39.9285216736 28.5322363941 19.6469972114
417 24 2 40.6646288893 27.5188041485 25.2894514952
418 24 2 40.1596233358 26.6637638961 25.5849604949
419 24 2 39.4377795775 25.9296767426 25.7011829145
420 24 2 38.5695688925 25.3711242173 25.6135513322
421 24 2 37.6388035132 25.0266883374 25.3160790739
422 24 2 36.7349973651 24.91543496 24.8219058817
423 24 2 35.9452071118 25.0351759804 24.1621002626
424 24 2 35.3460971729 25.3626687721 23.3828276764
425 24 2 34.9969519669 25.8557346897 22.5411426775
426 24 2 34.9342722952 26.4571035399 21.6997885453
427 24 2 35.168448391 27.0996336067 20.9214784011
428 24 2 35.6828128782 27.7124314392 20.2631790756
429 24 2 36.4351599573 28.2273136002 19.7709187339
430 24 2 37.3615923519 28.5850214041 19.4755915316
431 24 2 38.3823453743 28.740622188 19.390141695
432 24 2 39.4090572635 28.6676048037 19.5083836895
433 25 1 19.2771341613 34.8498924596 28.9415982081
434 25 1 17.6408857372 31.7980718176 33.2459068547
435 25 2 19.1596479007 35.3903356357 28.980324685
436 25 2 18.7239773878 36.3222966807 29.103165338
437 25 2 18.0458834692 37.0812162788 29.2972779141
438 25 2 17.1902778742 37.6012580735 29.563634083
439 25 2 16.2382520467 37.8383587812 29.8966207035
440 25 2 15.2796858775 37.7742444425 30.2845514473
441 25 2 14.4050553917 37.4180960441 30.7107319758
442 25 2 13.6971861014 36.8057126969 31.1549815848
443 25 2 13.2237036814 35.9962486425 31.5954726218
444 25 2 13.0308700696 35.0668215022 32.0107200181
445 25 2 13.1393668154 34.1054832118 32.3815395953
446 25 2 13.5424100112 33.2031943234 32.692796652
447 25 2 14.206368628 32.4455331938 32.9347854513
448 25 2 15.0738298934 31.904895746 33.1041138729
449 25 2 16.0688323124 31.6338967748 33.2040125957
450 25 2 17.1037893551 31.6605742482 33.2440406301
451 26 1 15.4179330542 24.9696454149 21.3564881662
452 26 1 14.0140276473 21.5725288481 25.4803988953
453 26 2 15.2407218762 25.4918839025 21.4134508601
454 26 2 14.7020727784 26.364642545 21.5604185862
455 26 2 13.9397075858 27.0360610849 21.7640026438
456 26 2 13.0253381749 27.4477767814 22.0245190099
457 26 2 12.0445312007 27.5650981137 22.3370944335
458 26 2 11.0889089242 27.3801668205 22.6921106199
459 26 2 10.2477980886 26.9126741594 23.0760809122
460 26 2 9.60008802553 26.2080661015 23.472879564
461 26 2 9.20704010282 25.3334010526 23.8652115586
462 26 2 9.10670391504 24.3712376587 24.2361890027
463 26 2 9.31044916444 23.4121098061 24.5708704135
464 26 2 9.80192934298 22.5462746994 24.8576225945
465 26 2 10.5385716729 21.8554861591 25.0891809706
466 26 2 11.4554575016 21.4055429788 25.2633117342
467 26 2 12.4712394633 21.2402915414 25.3830154513
468 26 2 13.4955560741 21.3776293382 25.4562535675
469 27 1 27.3478103005 21.284584652 34.1826054049
470 27 1 24.509955597 18.2544521541 37.8271724284
471 27 2 27.3933534704 21.8220418398 34.3108519605
472 27 2 27.2453935832 22.8118526989 34.5788675309
473 27 2 26.8092909323 23.7027376573 34.8781808783
474 27 2 26.127113338 24.412772418 35.200569432
475 27 2 25.2633576937 24.8765166961 35.535707378
476 27 2 24.2990712473 25.0509789261 35.872106829
477 27 2 23.3244643601 24.9195348278 36.1981649153
478 27 2 22.4306880742 24.4934426654 36.5032213545
479 27 2 21.7015259385 23.8108170865 36.7785301086
480 27 2 21.2057573619 22.9331550741 37.0180565614
481 27 2 20.9908885544 21.9397306606 37.2190275577
482 27 2 21.0788224627 20.920369312 37.3821841694
483 27 2 21.4638623752 19.9672605766 37.5117141483
484 27 2 22.1132311624 19.1665552541 37.614870224
485 27 2 22.970058824 18.5905129804 37.7013090367
486 27 2 23.9585660381 18.290915955 37.7822109606
487 28 1 19.0828520683 7.09299911853 22.0572175732
488 28 1 17.1119839602 2.14697580079 23.5304871691
489 28 2 18.7311716097 7.40720024882 21.7657041211
490 28 2 18.0518001212 7.80051339473 21.0895316867
491 28 2 17.3841118043 7.90777686584 20.3045878221
492 28 2 16.7722150414 7.71527852265 19.4909682854
493 28 2 16.2551329635 7.23662871382 18.7313825454
494 28 2 15.8632465967 6.51151972932 18.1036150348
495 28 2 15.6155257127 5.60210795422 17.6734353072
496 28 2 15.5177997846 4.58734848038 17.4886033175
497 28 2 15.5622266462 3.55579856083 17.5745162304
498 28 2 15.7280072846 2.59754585282 17.9318935362
499 28 2 15.9832816143 1.79599716871 18.5367114714
500 28 2 16.2880324393 1.2202761679 19.3423927205
501 28 2 16.5977329129 0.918922920041 20.2840518137
502 28 2 16.8674050416 0.915469607421 21.2844092642
503 28 2 17.0557193081 1.20629562945 22.2608353869
504 28 2 17.1287617473 1.76095761073 23.1328817732
505 29 1 15.3244088231 21.0484351528 11.2088908396
506 29 1 11.4945160218 18.2769556996 14.0670045239
507 29 2 15.3591347412 21.5888103916 11.3279299087
508 29 2 15.1912758571 22.5936280063 11.5166491906
509 29 2 14.7329638169 23.5112964952 11.6625417179
510 29 2 14.0231720348 24.2581655783 11.7713176798
511 29 2 13.1237956315 24.7661528853 11.8520703414
512 29 2 12.1140098591 24.9889494809 11.9164472164
513 29 2 11.0830534887 24.9062408013 11.9775884281
514 29 2 10.1220949347 24.5255582716 12.0489290216
515 29 2 9.31592249769 23.8815928373 12.1429743955
516 29 2 8.7352161374 23.0330329767 12.2701604688
517 29 2 8.43010518328 22.0572154033 12.4379024738
518 29 2 8.42559918012 21.0430760309 12.6499190783
519 29 2 8.71930833487 20.0830437031 12.9058934388
520 29 2 9.28166133987 19.2646155508 13.2015020795
521 29 2 10.0586007186 18.6623818629 13.5288089662
522 29 2 10.97651002 18.3312273804 13.876988854
523 30 1 31.9464656327 11.8888694708 14.280757717
524 30 1 31.949440622 6.56987133784 12.7886983775
525 30 2 31.6802710613 11.9984050319 14.7545973513
526 30 2 31.0097291027 12.0789177389 15.5403079831
527 30 2 30.1727019812 11.979221563 16.1427167162
528 30 2 29.2501742164 11.6931650609 16.5176356565
529 30 2 28.3309234825 11.2315830351 16.6416119967
530 30 2 27.5034287614 10.6213089704 16.5140656767
531 30 2 26.8478057197 9.90272923346 16.1573422544
532 30 2 26.4285043797 9.12610196349 15.6146761684
533 30 2 26.2884346721 8.34697617726 14.9462500338
534 30 2 26.4450553109 7.62112862459 14.2237091581
535 30 2 26.8887824777 6.99947988669 13.523631263
536 30 2 27.5838633618 6.52345310132 12.9205466293
537 30 2 28.4716349327 6.22119835449 12.4801448614
538 30 2 29.4758709188 6.10502687534 12.2532874553
539 30 2 30.5097296286 6.1702889005 12.271371909
540 30 2 31.4836693382 6.39579748765 12.5434699249
541 31 1 32.9785227552 9.71448533421 0.329180304771
542 31 1 30.3674421087 5.05127391515 1.72728909174
543 31 2 32.9574119167 10.1171225169 0.709731509815
544 31 2 32.6871651238 10.8242029791 1.41715917541
545 31 2 32.1409736078 11.4073555128 2.07674841232
546 31 2 31.3702727712 11.8034451056 2.64471255392
547 31 2 30.4469614412 11.9663870322 3.08561631611
548 31 2 29.4568484833 11.871347354 3.37560562881
549 31 2 28.4918315532 11.5170064661 3.50458187061
550 31 2 27.6415208706 10.9256793757 3.4771223312
551 31 2 26.9850714871 10.1412817492 3.31206300358
552 31 2 26.5839685154 9.22532711611 3.04078173368
553 31 2 26.4764229249 8.25132007561 2.70433821359
554 31 2 26.6738887146 7.29805654859 2.34973150031
555 31 2 27.1600189113 6.44244174012 2.02561617737
556 31 2 27.8921555526 5.75248043561 1.77786761954
557 31 2 28.8052178463 5.28107854629 1.64540057511
558 31 2 29.8176341103 5.0612208769 1.6566221905
559 32 1 13.0136146584 23.8172038308 26.6383445231
560 32 1 7.55531426579 24.4720789565 27.1824827911
561 32 2 13.3127855275 24.2778991086 26.7134327387
562 32 2 13.7193743827 25.2307662815 26.7000288265
563 32 2 13.8877752697 26.2334368458 26.5006726329
564 32 2 13.793171717 27.2030125802 26.1479360821
565 32 2 13.4347194051 28.0596117687 25.688371308
566 32 2 12.8356231235 28.7336502055 25.1782675517
567 32 2 12.0410217163 29.1721836093 24.6785205472
568 32 2 11.1138737973 29.3437333533 24.2490820383
569 32 2 10.1292192407 29.2411556575 23.9434953376
570 32 2 9.16733949696 28.8822927255 23.8040149959
571 32 2 8.30644015311 28.308346475 23.8577554139
572 32 2 7.61552270275 27.5801230936 24.1142194362
573 32 2 7.14809524417 26.7724907168 24.5644321926
574 32 2 6.93729536024 25.9675553978 25.1817591339
575 32 2 6.99286971633 25.2471773604 25.9243336994
576 32 2 7.30028567775 24.685509658 26.7388733424
577 33 1 9.80794099276 27.4696937381 35.2231580237
578 33 1 5.94193172553 28.2441596896 31.3537697133
579 33 2 9.61558386385 27.4356402533 35.7420228262
580 33 2 9.14385100866 27.5706772553 36.6545375562
581 33 2 8.55079111376 27.9439591525 37.417682757
582 33 2 7.87417252885 28.5115876406 37.9593793522
583 33 2 7.15937975492 29.2119502429 38.2277327141
584 33 2 6.45527676825 29.9713361229 38.19576272
585 33 2 5.80975319958 30.7106546303 37.8638629187
586 33 2 5.26535932228 31.3526442019 37.2597646589
587 33 2 4.85542770863 31.8289145471 36.4360094516
588 33 2 4.60103505498 32.0861802397 35.4651599512
589 33 2 4.50908109719 32.0911175423 34.433186064
590 33 2 4.57165971814 31.8334017758 33.4316290206
591 33 2 4.76677956921 31.3266483865 32.5492576378
592 33 2 5.06036852289 30.6071719341 31.8639772777
593 33 2 5.40937925616 29.7306761171 31.4357289828
594 33 2 5.76571289891 28.7671765296 31.3010260094