LAMMPS input file for bananas

648 atoms

2 atom types

0 42.5063427673 xlo xhi
0 42.5063427673 ylo yhi
0 42.5063427673 zlo zhi

Masses

 1 1
 2 1

Atoms

1 1 1 11.4617659667 15.6131424904 31.9435525724
2 1 1 7.91573698182 19.8273198739 32.3729457261
3 1 2 11.3272552181 15.2324674924 31.5635854785
4 1 2 10.8668907287 14.526173721 30.9613698555
5 1 2 10.1667242534 13.8923848904 30.5353080804
6 1 2 9.28349771327 13.3997958509 30.3101038882
7 1 2 8.290638465 13.1042314694 30.2921533822
8 1 2 7.27156659356 13.0435583417 30.468962046
9 1 2 6.31209139451 13.2342333537 30.8102835856
10 1 2 5.49259008596 13.6698036801 31.2708767978
11 1 2 4.88068164006 14.3214949424 31.7946291856
12 1 2 4.52506349436 15.1408339163 32.3196714616
13 1 2 4.45107291054 16.0640667365 32.7840167687
14 1 2 4.65837755075 17.0179698918 33.1312106163
15 1 2 5.12100576932 17.9265243513 33.3154765562
16 1 2 5.7897138588 18.717844497 33.3058885834
17 1 2 6.59647448234 19.3307303051 33.0891899592
18 1 2 7.46067718357 19.7202455647 32.6710015269
19 2 1 18.3318926676 28.7691852137 38.814647014
20 2 1 22.4328281514 25.8013975072 36.6027348664
21 2 2 17.936632972 28.9237063231 38.4578913724
22 2 2 17.3804376258 29.2875185577 37.6630722697
23 2 2 17.1040710293 29.7062646534 36.7565827646
24 2 2 17.1312994868 30.1262391996 35.8098357008
25 2 2 17.4582174251 30.4936248155 34.8979132907
26 2 2 18.0536033757 30.7593974606 34.0927235726
27 2 2 18.8617657283 30.8837948453 33.4564461852
28 2 2 19.8076188723 30.8399406572 33.0358648598
29 2 2 20.8035270496 30.6162942649 32.8581032081
30 2 2 21.7572921194 30.2177026159 32.9281524774
31 2 2 22.5805571726 29.6649584503 33.2284166123
32 2 2 23.1968600279 28.992905098 33.7203160872
33 2 2 23.548602555 28.2472606025 34.3478043278
34 2 2 23.6023005906 27.4804506432 35.0424762061
35 2 2 23.35163593 26.7468300751 35.7298029851
36 2 2 22.818032215 26.0977286287 36.3359254139
37 3 1 16.4272737493 23.7107309031 20.9463381729
38 3 1 14.4116011195 18.6306766143 20.1412895192
39 3 2 16.2960737446 23.9395208496 21.4340094835
40 3 2 15.8322360984 24.3040524106 22.2857262147
41 3 2 15.1232423742 24.544928538 23.0017964637
42 3 2 14.2348011182 24.6250815903 23.5287667037
43 3 2 13.2489770392 24.5220934048 23.8304193684
44 3 2 12.2567110303 24.2302386529 23.8910739861
45 3 2 11.3495311493 23.7610066891 23.717016413
46 3 2 10.6112100807 23.1420543264 23.3359258942
47 3 2 10.1101294796 22.414684992 22.7943521745
48 3 2 9.89304716678 21.6300840304 22.1534726135
49 3 2 9.98083527785 20.844653296 21.4835160327
50 3 2 10.3665778242 20.1148702746 20.8573615463
51 3 2 11.016201067 19.4921403119 20.3438958248
52 3 2 11.8715792468 19.0181111532 20.0017342588
53 3 2 12.8558325921 18.720876863 19.873878323
54 3 2 13.8803347041 18.6124171264 19.9837961068
55 4 1 6.10752341928 28.2199733352 16.072724284
56 4 1 7.54366441234 22.9502739743 16.9008298055
57 4 2 6.14936690053 28.5463684904 16.518927056
58 4 2 6.10358364233 28.9853062082 17.4563104271
59 4 2 5.91435209996 29.1617986148 18.4595511086
60 4 2 5.61493855492 29.0530700077 19.4454413815
61 4 2 5.24865208378 28.6623418179 20.3323549702
62 4 2 4.86489705159 28.0185389842 21.0476870594
63 4 2 4.51467003604 27.1736535231 21.5344720287
64 4 2 4.24591162573 26.1980055949 21.7565757169
65 4 2 4.09913676361 25.1738340095 21.7019889541
66 4 2 4.10374191828 24.1878003783 21.3839221657
67 4 2 4.2753256744 23.3230901402 20.839601277
68 4 2 4.61426696339 22.651830431 20.1268746697
69 4 2 5.10569052487 22.228515888 19.318940457
70 4 2 5.72082274687 22.0850416091 18.4976746706
71 4 2 6.41961430366 22.2277960002 17.7461684796
72 4 2 7.15439054473 22.637078489 17.1411546524
73 5 1 26.7528865897 34.2474203292 28.9406896015
74 5 1 24.4265190244 31.7208004935 33.2676050407
75 5 2 26.7068301752 34.7999239586 28.9403231182
76 5 2 26.3931399328 35.7866697741 28.97748679
77 5 2 25.8115883787 36.6384089965 29.076421608
78 5 2 25.0174083922 37.2816180119 29.2467457776
79 5 2 24.0852133659 37.6617801777 29.4915705553
80 5 2 23.1021963943 37.7483548683 29.8072166667
81 5 2 22.1601828564 37.537561172 30.1835496618
82 5 2 21.3472607778 37.0527225106 30.6049036433
83 5 2 20.7397518427 36.3421407722 31.0515091716
84 5 2 20.3952548762 35.4746937228 31.501295196
85 5 2 20.3473958655 34.5335569823 31.931900772
86 5 2 20.6027630409 33.6086227891 32.3227132016
87 5 2 21.1403063763 32.7883065627 32.6567468261
88 5 2 21.9132562429 32.1514880743 32.9221912229
89 5 2 22.8533863357 31.7603217671 33.113487694
90 5 2 23.8772323189 31.6545715442 33.2318359271
91 6 1 11.1881770743 15.1474986146 20.3102043579
92 6 1 11.8432768672 13.9989440727 14.9464689257
93 6 2 11.5909079056 15.4559451824 20.5339233343
94 6 2 12.4844717764 15.8723507563 20.8526709114
95 6 2 13.4922505849 16.0583527819 21.0051016525
96 6 2 14.5263055804 16.0092448041 20.9630459281
97 6 2 15.4963030081 15.7417500162 20.7160610302
98 6 2 16.3177477894 15.2924969855 20.2723829972
99 6 2 16.9196850221 14.7146810574 19.6581759212
100 6 2 17.2511673307 14.0732157417 18.9151471606
101 6 2 17.2858985828 13.4388160199 18.0967458262
102 6 2 17.024630712 12.8815528633 17.2632910373
103 6 2 16.4950951806 12.4644664515 16.4764739954
104 6 2 15.7494753313 12.2378202287 15.7937349962
105 6 2 14.8596500146 12.2345195246 15.2630278996
106 6 2 13.9106420242 12.4671123219 14.9184492643
107 6 2 12.9928684961 12.9266455412 14.777130537
108 6 2 12.1938996287 13.5834810902 14.8376765671
109 7 1 26.9657990168 18.9885645992 14.7102041281
110 7 1 21.7293693939 19.5637401835 13.0467832814
111 7 2 27.3020965171 18.7447551027 14.3429950476
112 7 2 27.7606012147 18.1266611587 13.6493212555
113 7 2 27.9567485273 17.3538609634 12.987689862
114 7 2 27.8663063299 16.5041343632 12.4018273139
115 7 2 27.4911643652 15.6622728413 11.9285539307
116 7 2 26.8591619988 14.9123509994 11.59442783
117 7 2 26.0215507354 14.3300633837 11.4133242266
118 7 2 25.0483227811 13.9758251282 11.385170744
119 7 2 24.021831441 13.8892652775 11.4959540105
120 7 2 23.0292848354 14.0856147052 11.7189969413
121 7 2 22.1547971126 14.5543178599 12.0173902835
122 7 2 21.4717216695 15.2599948764 12.347356795
123 7 2 21.0359651853 16.1456663549 12.6622414243
124 7 2 20.880891877 17.1379468819 12.9167637927
125 7 2 21.0142824404 18.1537339137 13.0711453806
126 7 2 21.4176248604 19.1077823519 13.0947352326
127 8 1 11.4441532037 10.285073881 9.480080286
128 8 1 8.09661172651 11.563914215 13.6844261947
129 8 2 11.5611545026 10.7057020568 9.13837248417
130 8 2 11.5462515927 11.5198132123 8.49770803147
131 8 2 11.2313042135 12.3173150595 7.91611628181
132 8 2 10.6466266773 13.040195442 7.45890064083
133 8 2 9.84711847941 13.6372437508 7.18002796433
134 8 2 8.90726035574 14.0687186337 7.11720962353
135 8 2 7.91432556282 14.3099703141 7.28846421443
136 8 2 6.9604251537 14.3536873516 7.69047521093
137 8 2 6.13411230171 14.2105630607 8.29889325731
138 8 2 5.51231091533 13.9083208435 9.07055554694
139 8 2 5.15330422956 13.489187276 9.94741999672
140 8 2 5.09142244485 13.006043268 10.8618556278
141 8 2 5.33391362105 12.5176041102 11.7428069487
142 8 2 5.86028303613 12.0830677319 12.5222704732
143 8 2 6.62416122535 11.7567189682 13.1414930565
144 8 2 7.55753043399 11.5829816421 13.5563270872
145 9 1 35.3327022742 11.4403337641 43.570029383
146 9 1 39.9164808859 14.1270394353 42.0572249219
147 9 2 35.1297611751 11.0919799478 43.1894428396
148 9 2 34.7708819428 10.6271570493 42.335864852
149 9 2 34.4807544388 10.4345947661 41.3600596411
150 9 2 34.3018991453 10.524432644 40.3435017476
151 9 2 34.26669438 10.8810702089 39.3713802105
152 9 2 34.3944250986 11.4645889083 38.5248338135
153 9 2 34.6895251233 12.2143905807 37.8735555023
154 9 2 35.1411730111 13.054720816 37.469440058
155 9 2 35.7242783999 13.9015737675 37.3418540273
156 9 2 36.4017689275 14.6703490606 37.49495904
157 9 2 37.1279692789 15.2835628903 37.9073324872
158 9 2 37.8527643685 15.6779104634 38.5339201354
159 9 2 38.5261671967 15.8100360609 39.3101426992
160 9 2 39.1028750313 15.660484796 40.1577820706
161 9 2 39.5463986302 15.2354758752 40.9921106903
162 9 2 39.8323881383 14.566335734 41.7296142386
163 10 1 20.8612992116 5.54006383059 9.87879819426
164 10 1 18.0879660295 1.94962252506 13.0308364799
165 10 2 20.7578946666 6.0739802315 9.98660526716
166 10 2 20.3400591131 7.00414150557 10.1700813299
167 10 2 19.6634589804 7.77196322072 10.3316736733
168 10 2 18.7882188819 8.30734272658 10.4758040507
169 10 2 17.7925689325 8.56136385892 10.6084858273
170 10 2 16.7657142836 8.51075551725 10.7367758774
171 10 2 15.7997043113 8.16001276342 10.8681313696
172 10 2 14.9810425623 7.54098710877 11.0097300655
173 10 2 14.3828021862 6.70998333398 11.1678160861
174 10 2 14.057965514 5.74262745882 11.3471307769
175 10 2 14.0345948595 4.72697363258 11.5504805469
176 10 2 14.313274715 3.75547823369 11.7784810716
177 10 2 14.8670584759 2.91657271796 12.0295011763
178 10 2 15.6439245521 2.28660332772 12.2998115132
179 10 2 16.5715179966 1.92287233592 12.5839244811
180 10 2 17.5637454656 1.85841509706 12.8750944062
181 11 1 34.3197057339 24.1372595418 31.9015978528
182 11 1 31.7938476754 21.8859977813 36.2685020898
183 11 2 34.4724309353 24.6661868383 31.9671151481
184 11 2 34.5351519242 25.6821789272 32.1601855084
185 11 2 34.3091951834 26.6524517874 32.4447274896
186 11 2 33.8209382184 27.4887151861 32.8131276463
187 11 2 33.1206664994 28.1148934943 33.2501290845
188 11 2 32.2779900745 28.4740597779 33.7342220867
189 11 2 31.3754988001 28.533624535 34.2396046652
190 11 2 30.5012344966 28.288306142 34.7385343444
191 11 2 29.7406661711 27.7606122597 35.2038568133
192 11 2 29.1688997464 26.9987883199 35.611480968
193 11 2 28.8438323565 26.0724200836 35.9425747521
194 11 2 28.8008751778 25.0660910843 36.1852816476
195 11 2 29.0497257951 24.0716730655 36.3358013654
196 11 2 29.5734842924 23.1799521168 36.3987362311
197 11 2 30.3301936352 22.4723537641 36.3866716956
198 11 2 31.256663942 22.013521251 36.3190292046
199 12 1 38.4375383499 13.2990333694 41.3008354817
200 12 1 34.0755904776 12.9113481979 37.93318021
201 12 2 38.9305144412 13.2676284526 41.0491017083
202 12 2 39.759292938 13.0162328553 40.4804397101
203 12 2 40.3989805819 12.5435818783 39.8164737598
204 12 2 40.7880006682 11.9025349179 39.1015106991
205 12 2 40.8876241698 11.1613002142 38.3845056202
206 12 2 40.685499785 10.3972178522 37.71459974
207 12 2 40.1967797253 9.68971042008 37.136641309
208 12 2 39.462738632 9.11304385227 36.6870978138
209 12 2 38.547011503 8.72955828814 36.3907320624
210 12 2 37.5297935328 8.58398593488 36.2583451213
211 12 2 36.5005305346 8.69937384643 36.2857918263
212 12 2 35.5497661939 9.07498324606 36.454358604
213 12 2 34.7608892533 9.68635686391 36.7324691632
214 12 2 34.2025328516 10.4875481518 37.07856259
215 12 2 33.9223187965 11.4153091882 37.4448815137
216 12 2 33.9425169644 12.3948555574 37.7818250636
217 13 1 17.621646075 1.93375147248 1.35120545342
218 13 1 18.8677522602 5.28351927597 5.56359979622
219 13 2 17.3515190545 2.176096475 0.932061229342
220 13 2 16.7059036304 2.70732886758 0.32016019123
221 13 2 15.936891609 3.31192190583 -0.021216111603
222 13 2 15.1231480834 3.95194727872 -0.0617007741736
223 13 2 14.3474153042 4.58624711262 0.201647639705
224 13 2 13.6889709436 5.17418540148 0.744076993377
225 13 2 13.2164021483 5.67935187017 1.51539766844
226 13 2 12.9813540038 6.07288067374 2.44455721432
227 13 2 13.0138222232 6.33608144201 3.44611658924
228 13 2 13.319419118 6.46214285692 4.42803770051
229 13 2 13.8788620509 6.45675348589 5.30007243067
230 13 2 14.6497309969 6.33758328417 5.98198851222
231 13 2 15.5703350149 6.13267302561 6.41088248433
232 13 2 16.5653352119 5.87787846106 6.54691317517
233 13 2 17.5526116826 5.61360216256 6.37693311825
234 13 2 18.4507485182 5.38111093684 5.91568690884
235 14 1 27.6002481963 36.660231213 20.5029535262
236 14 1 31.184746033 32.9906166074 22.5531474112
237 14 2 27.5959228498 37.1513566628 20.7601668074
238 14 2 27.5677113711 37.9373308116 21.4346286381
239 14 2 27.5314229141 38.4916197009 22.3092125313
240 14 2 27.5090270103 38.7662980147 23.3079618785
241 14 2 27.5212269219 38.7389261934 24.343602722
242 14 2 27.5855725949 38.4145957403 25.3254985427
243 14 2 27.7148610288 37.825465144 26.1679115367
244 14 2 27.9159698638 37.0278287184 26.7978173871
245 14 2 28.1892305027 36.0969855266 27.1615612348
246 14 2 28.528397904 35.1203760724 27.2297481762
247 14 2 28.9212198011 34.1896123319 26.9999225297
248 14 2 29.3505534634 33.3921275672 26.4967916644
249 14 2 29.7959282107 32.8032070178 25.7699739898
250 14 2 30.2354112606 32.4791258525 24.8894763701
251 14 2 30.6476068431 32.4520198379 23.9393131857
252 14 2 31.0136063682 32.7269562497 23.0098486472
253 15 1 9.28864796358 25.062137313 32.6547877213
254 15 1 3.96385545543 26.4745577715 33.066666654
255 15 2 9.6415323978 25.4884839717 32.6218834548
256 15 2 10.1552582816 26.3580137647 32.3906829649
257 15 2 10.4322403226 27.2626756401 31.9684059808
258 15 2 10.4392893713 28.1325943644 31.4056966995
259 15 2 10.167819949 28.9010614494 30.7659993467
260 15 2 9.63463279112 29.5106154527 30.1197754049
261 15 2 8.88038350536 29.9182794346 29.5380812379
262 15 2 7.96587692141 30.0994781912 29.0860914927
263 15 2 6.96652489337 30.0502782185 28.8171586053
264 15 2 5.96547271082 29.787746241 28.7679498682
265 15 2 5.04602062786 29.3483936254 28.9551053047
266 15 2 4.28403126762 28.7848484666 29.3737209758
267 15 2 3.74101494691 28.1610586781 29.9977959604
268 15 2 3.45852317526 27.5464633104 30.7826022703
269 15 2 3.45436134585 27.009663367 31.6687616866
270 15 2 3.72096582158 26.6121690065 32.5876579256
271 16 1 10.4705640135 26.4299400521 18.3348637832
272 16 1 11.6941802821 21.2059749143 17.0192108931
273 16 2 10.8358476415 26.6780942573 18.6700785646
274 16 2 11.4905646923 26.9477312596 19.4264458573
275 16 2 12.0706309815 26.9384337982 20.2848668896
276 16 2 12.5398455667 26.6441651794 21.1604773418
277 16 2 12.8721113424 26.0848630687 21.966846125
278 16 2 13.0538137208 25.3046222263 22.6238533431
279 16 2 13.0850615653 24.3676753868 23.0649930075
280 16 2 12.9796772681 23.3525386181 23.2434348802
281 16 2 12.7639368759 22.3448547909 23.1362929246
282 16 2 12.4741750984 21.4295874601 22.7467113071
283 16 2 12.1534734969 20.6832766643 22.103577814
284 16 2 11.8477337148 20.1670625051 21.2588908076
285 16 2 11.6014936657 19.921112391 20.2830197143
286 16 2 11.4538680216 19.9609598851 19.2582910392
287 16 2 11.434983015 20.2760888621 18.2714845255
288 16 2 11.5632305135 20.8308920257 17.4059234127
289 17 1 37.7813785816 11.7239380051 12.9780466289
290 17 1 37.9179865547 8.86868265349 8.25080153264
291 17 2 37.6205659469 11.4332738487 13.4219331378
292 17 2 37.1405764633 10.8281919497 14.1125386709
293 17 2 36.4736038248 10.1771303031 14.564994462
294 17 2 35.6887649873 9.52242332199 14.7348084168
295 17 2 34.8659200958 8.906737682 14.6032504888
296 17 2 34.0883934455 8.36918336779 14.179059873
297 17 2 33.435378695 7.94174890249 13.497648452
298 17 2 32.9747205761 7.64638567934 12.6178730971
299 17 2 32.7567310276 7.49300715084 11.6166710222
300 17 2 32.809603397 7.47858524407 10.5820471618
301 17 2 33.1368426916 7.58742636145 9.60505275735
302 17 2 33.7169461071 7.79260181019 8.771486279
303 17 2 34.50536295 8.05840228068 8.15407312495
304 17 2 35.4385553152 8.3435926546 7.80583689561
305 17 2 36.4397893952 8.60517047577 7.75526643414
306 17 2 37.4261295625 8.8022855091 8.00371914455
307 18 1 6.71142518182 15.564623773 34.807819907
308 18 1 7.7454617766 11.9572059205 38.8618667517
309 18 2 6.8533041755 16.0887686243 34.9197310953
310 18 2 6.99620434111 17.0309398052 35.3263550246
311 18 2 6.98307792019 17.8471094485 35.9644340334
312 18 2 6.83150686252 18.4604940519 36.7855525108
313 18 2 6.57169197652 18.8127934271 37.7246112877
314 18 2 6.24370020624 18.8695046067 38.7057612517
315 18 2 5.89381263651 18.6230666972 39.6493167914
316 18 2 5.57030609575 18.0935500345 40.4790189266
317 18 2 5.31905285211 17.3268268259 41.1289861106
318 18 2 5.17933947883 16.3903900218 41.5497191571
319 18 2 5.18028598806 15.367201513 41.7126129589
320 18 2 5.33819161965 14.3481303762 41.6125637666
321 18 2 5.65504920892 13.4236704009 41.268434382
322 18 2 6.11836354511 12.6756918219 40.7213348641
323 18 2 6.70229027644 12.1699790666 40.0308754572
324 18 2 7.36999155364 11.9502346798 39.2697332759
325 19 1 16.1163774622 28.8393488971 21.8678069484
326 19 1 12.9926649154 25.7667569079 25.2322667051
327 19 2 16.2159098888 29.3544518701 22.0470939007
328 19 2 16.1685951769 30.3231651787 22.411519277
329 19 2 15.8246876764 31.2196766844 22.8006783223
330 19 2 15.217791154 31.9594631677 23.1979723965
331 19 2 14.4054801228 32.4722864761 23.5860613735
332 19 2 13.4640520794 32.708595544 23.9484441472
333 19 2 12.4815731909 32.6440428395 24.2709626633
334 19 2 11.5498512993 32.2817035774 24.5430923878
335 19 2 10.7560678819 31.6517954211 24.7589015905
336 19 2 10.1748316928 30.8089242236 24.9175920064
337 19 2 9.86137837427 29.82710685 25.023571595
338 19 2 9.84653587579 28.7930247379 25.0860527669
339 19 2 10.1339145686 27.7981231161 25.1182126972
340 19 2 10.6995781701 26.9302760166 25.135992261
341 19 2 11.4942254722 26.265776791 25.1566430656
342 19 2 12.4476840143 25.8623841759 25.197155012
343 20 1 41.5411340373 13.469660064 19.1609114042
344 20 1 37.3805869263 10.0103765685 20.2750013899
345 20 2 41.5037744717 13.9661610528 19.4047814906
346 20 2 41.2167927272 14.892242483 19.7701096638
347 20 2 40.6654251945 15.7378045157 20.0034949761
348 20 2 39.8927522788 16.4211374992 20.1008736706
349 20 2 38.9620257796 16.8753185262 20.0705786305
350 20 2 37.9509036579 17.0543112778 19.9325798583
351 20 2 36.944371721 16.9371621106 19.7166642642
352 20 2 36.026997393 16.5299099258 19.4597206681
353 20 2 35.2752216204 15.8650357393 19.2023774828
354 20 2 34.7503914838 14.9985021238 18.9852995427
355 20 2 34.4931685757 14.00465237 18.8454816125
356 20 2 34.5198228051 12.9694342943 18.8128764136
357 20 2 34.8207494384 11.9825663251 18.9076645135
358 20 2 35.3613445458 11.1293599078 19.1384149209
359 20 2 36.0851590564 10.4829435946 19.5013040439
360 20 2 36.9190439404 10.0975975725 19.9804641993
361 21 1 36.3342660649 33.6062455976 18.4727553544
362 21 1 32.9816222191 37.4901378778 16.4250368533
363 21 2 36.3294248372 33.5611495479 19.0253171128
364 21 2 36.3533741322 33.7096680139 20.0504116
365 21 2 36.4024789043 34.1502488382 20.9868555491
366 21 2 36.4536776133 34.8455425613 21.7532727605
367 21 2 36.4837178627 35.7349833241 22.2837845173
368 21 2 36.4712757927 36.7403092837 22.5340142541
369 21 2 36.3988996937 37.772695971 22.4851323627
370 21 2 36.2546006823 38.7408524042 22.1455724602
371 21 2 36.0329454567 39.5593420173 21.5502626876
372 21 2 35.7355515269 40.156369975 20.757442103
373 21 2 35.3709397836 40.48032708 19.843352347
374 21 2 34.9537578414 40.5044938134 18.8952884213
375 21 2 34.5034449483 40.2294757472 18.003641982
376 21 2 34.0424601495 39.6831483484 17.2536623824
377 21 2 33.5942352063 38.9181162045 16.7176864218
378 21 2 33.1810388529 38.006918256 16.4485450401
379 22 1 18.3498753566 21.3384517456 34.6323183008
380 22 1 17.0735038684 21.7395000712 29.2724650261
381 22 2 18.4473061613 20.8228377285 34.8112903984
382 22 2 18.4244219168 19.812614124 35.0401453556
383 22 2 18.1457316727 18.8165956061 35.1012098391
384 22 2 17.6460167395 17.9179598789 34.9739745195
385 22 2 16.9802042375 17.1910084653 34.655093091
386 22 2 16.2183606363 16.6943943217 34.1586872783
387 22 2 15.4393053835 16.4657757783 33.5150596795
388 22 2 14.723426723 16.5183840825 32.7679317648
389 22 2 14.145354521 16.8398174061 31.9704587816
390 22 2 13.7671579532 17.393171239 31.1803847959
391 22 2 13.6326880657 18.1204021365 30.4547794746
392 22 2 13.763580869 18.9476182242 29.8448363383
393 22 2 14.1572852736 19.7918142449 29.3912066087
394 22 2 14.7872956149 20.5684372658 29.1202939579
395 22 2 15.605567574 21.1990934525 29.041847885
396 22 2 16.5468972884 21.6186934573 29.1480750747
397 23 1 17.8064367489 11.5546749576 35.8274939007
398 23 1 16.8537740935 6.20864689653 36.8425844859
399 23 2 17.7189398172 11.8933229184 36.2576606518
400 23 2 17.349050089 12.4139172088 37.0735118544
401 23 2 16.7469704196 12.7383838872 37.8517608233
402 23 2 15.9741183526 12.8265953968 38.5361352992
403 23 2 15.107476879 12.6599582084 39.078919432
404 23 2 14.2325776435 12.2431075701 39.4453029529
405 23 2 13.435704964 11.6034850175 39.6165540375
406 23 2 12.7960312462 10.7888371505 39.5917266613
407 23 2 12.3784006304 9.86286365871 39.3877468276
408 23 2 12.227418622 8.89941126502 39.0378698072
409 23 2 12.3633864183 7.9757427939 38.5886490096
410 23 2 12.7804505089 7.16549487167 38.095692764
411 23 2 13.4471362074 6.53196614474 37.6185957689
412 23 2 14.3092164852 6.12234777722 37.2155071945
413 23 2 15.2946546198 5.96342210241 36.9378305411
414 23 2 16.32017015 6.05912148472 36.8255383477
415 24 1 26.9565035942 18.4065257154 28.3792003348
416 24 1 24.8763492801 20.8591264396 32.8709370566
417 24 2 27.3673141201 18.6838188957 28.1307555886
418 24 2 27.9844360009 19.3823478221 27.6783531853
419 24 2 28.3650165888 20.2644302034 27.2903594999
420 24 2 28.4839620018 21.2567449364 27.0172048358
421 24 2 28.3400257047 22.2759235339 26.8988522268
422 24 2 27.9559221276 23.2361489389 26.9611549132
423 24 2 27.3762563064 24.0569775207 27.2134998877
424 24 2 26.6634582526 24.6706712962 27.6479522966
425 24 2 25.8920926251 25.0283720664 28.2399786802
426 24 2 25.1420623604 25.1045547105 28.9506831321
427 24 2 24.491325734 24.8993537323 29.7303525574
428 24 2 24.0087906713 24.4385510009 30.5229878879
429 24 2 23.7480339749 23.7712258021 31.2714082481
430 24 2 23.7424179422 22.9652813924 31.9224628386
431 24 2 24.0020494809 22.1012557989 32.4318754897
432 24 2 24.5128588914 21.2649809936 32.7682803162
433 25 1 11.1655911845 15.9635003076 12.4864905803
434 25 1 9.83312777492 10.6170816285 12.8844097074
435 25 2 11.699650991 16.0635541895 12.376259315
436 25 2 12.7346269972 16.1034082224 12.3500613395
437 25 2 13.7378999575 15.9375356438 12.5485044447
438 25 2 14.6221685763 15.5669320767 12.9411518909
439 25 2 15.3109784857 15.0112538268 13.4798657318
440 25 2 15.7456908568 14.3070262622 14.1031944596
441 25 2 15.890827172 13.5043146241 14.7419741456
442 25 2 15.7373029973 12.6621607137 15.3256325477
443 25 2 15.3032560042 11.8432013902 15.7886215814
444 25 2 14.6323927693 11.1079593878 16.0763918527
445 25 2 13.7900050365 10.5093268309 16.1503646895
446 25 2 12.8570185494 10.0877442579 15.9914484842
447 25 2 11.9226168859 9.86751457452 15.6017788433
448 25 2 11.0761126135 9.85458790871 15.0045239318
449 25 2 10.3988066873 10.0360192724 14.2417727576
450 25 2 9.95657808542 10.3811484627 13.3706988705
451 26 1 27.922084169 23.2483306208 24.9412265376
452 26 1 28.1254952244 19.7149899927 29.1829383394
453 26 2 27.4695277404 23.5681995804 24.9251605589
454 26 2 26.5108851866 23.9611809164 24.9206733928
455 26 2 25.480550487 24.0605029459 24.9653449994
456 26 2 24.4696785569 23.8609049369 25.0737358984
457 26 2 23.5676503321 23.3843719202 25.2545987661
458 26 2 22.8539259357 22.6781308121 25.5100806526
459 26 2 22.3908020999 21.8103458076 25.8355272839
460 26 2 22.2177339857 20.863905396 26.2199072865
461 26 2 22.3477389505 19.9288672969 26.6468176676
462 26 2 22.7662100503 19.0942499393 27.095978904
463 26 2 23.432247424 18.4399186704 27.5450833667
464 26 2 24.2823862065 18.0293062419 27.9718286013
465 26 2 25.2363811811 17.9036310848 28.3559501374
466 26 2 26.204520917 18.0781403595 28.6810685407
467 26 2 27.0958047259 18.5407202174 28.9361823548
468 26 2 27.8262371321 19.2529999466 29.1166708545
469 27 1 22.6733240171 26.7602989443 8.36110918511
470 27 1 18.5501030813 26.1998446036 11.994692968
471 27 2 22.790676701 26.3040661176 8.0687711213
472 27 2 23.0143814638 25.3493176075 7.73431413961
473 27 2 23.2110613537 24.3327104566 7.69857994209
474 27 2 23.3452728399 23.3396415646 7.96173667098
475 27 2 23.3872662201 22.4533623819 8.49670935948
476 27 2 23.3156972256 21.7473907621 9.25164774253
477 27 2 23.1195724948 21.2788100064 10.15465227
478 27 2 22.7992515883 21.0830658735 11.1203275583
479 27 2 22.3664142165 21.1707357928 12.0575659517
480 27 2 21.8429956647 21.5265647605 12.8778517412
481 27 2 21.2591874506 22.1108557923 13.5033291353
482 27 2 20.6506854483 22.8630881973 13.8738986068
483 27 2 20.0554363048 23.7074338774 13.9526948047
484 27 2 19.5101787042 24.5596688556 13.7294467316
485 27 2 19.0470947352 25.3348500664 13.2214139185
486 27 2 18.6908765797 25.9550576894 12.471813264
487 28 1 6.83745640693 3.01915081231 21.959393685
488 28 1 9.07256627015 3.63538260545 26.9736267608
489 28 2 6.76608462342 3.49026966026 21.6759599403
490 28 2 6.52930111909 4.44301610273 21.3448137496
491 28 2 6.19088905247 5.42130326455 21.3014373348
492 28 2 5.79751800713 6.3457858332 21.5545009872
493 28 2 5.40086693068 7.14202264098 22.085655278
494 28 2 5.05291373676 7.74726177858 22.8512035602
495 28 2 4.80119765721 8.11616026378 23.7860848008
496 28 2 4.6844861681 8.22491693318 24.8098037204
497 28 2 4.72924143791 8.07344185456 25.8337677225
498 28 2 4.94720837162 7.68536452404 26.7693618719
499 28 2 5.334344094 7.10588010056 27.5360259096
500 28 2 5.87118644687 6.39762998806 28.0685971043
501 28 2 6.52462791282 5.63499223881 28.3232496621
502 28 2 7.25093327692 4.89730219286 28.2814893298
503 28 2 7.99972597468 4.26162127374 27.9518390969
504 28 2 8.71857978123 3.79571304575 27.369062348
505 29 1 6.82070903893 11.0955117415 14.450725591
506 29 1 7.33779079093 15.886038772 11.7486026676
507 29 2 7.20146283519 11.0067828751 14.8438354012
508 29 2 8.06410699208 10.8968226048 15.4070438961
509 29 2 9.05502712799 10.8828772852 15.7092571048
510 29 2 10.0859577493 10.9837970624 15.7304057167
511 29 2 11.0649865136 11.2079624361 15.4760387081
512 29 2 11.904931794 11.5525203993 14.9768175676
513 29 2 12.5312890515 12.0036444821 14.2857215836
514 29 2 12.8890217243 12.5377949978 13.4732189235
515 29 2 12.9475776639 13.1238646221 12.620843649
516 29 2 12.7036738811 13.7260137428 11.8137641038
517 29 2 12.181595782 14.3069371445 11.1330200469
518 29 2 11.4309836183 14.8312642795 10.6481360954
519 29 2 10.5223079108 15.2687831985 10.4107847412
520 29 2 9.54044624985 15.5971942889 10.4500765415
521 29 2 8.57694692978 15.8041428253 10.7699067694
522 29 2 7.7216845667 15.8883450692 11.3486003702
523 30 1 28.2544328245 33.0243069202 30.6094443521
524 30 1 26.3301723559 28.0365556869 32.0014035274
525 30 2 27.8821219236 33.4342233414 30.6365498627
526 30 2 27.0548121558 34.0531158749 30.5592155803
527 30 2 26.115055031 34.4276286135 30.3355042344
528 30 2 25.1385389766 34.5188070055 30.0015088641
529 30 2 24.2043028977 34.3135216672 29.6033746028
530 30 2 23.387531993 33.825665092 29.1930926724
531 30 2 22.7527048244 33.094885386 28.8237615222
532 30 2 22.3477162685 32.1829724496 28.5447470475
533 30 2 22.1995120268 31.1682259927 28.3971830201
534 30 2 22.3116325967 30.1383187261 28.4102218545
535 30 2 22.663890565 29.1823052277 28.598377444
536 30 2 23.2142106364 28.382504856 28.9602022575
537 30 2 23.9024646841 27.8069985605 29.4784192784
538 30 2 24.6559522684 27.5034234851 30.1214967584
539 30 2 25.3960270866 27.4946309697 30.8465222519
540 30 2 26.0452653743 27.7766037121 31.6031139711
541 31 1 38.8052728127 8.7437475459 31.1943064698
542 31 1 34.6118366871 12.045547374 29.7691038816
543 31 2 39.2560478359 8.78738824286 30.8744956568
544 31 2 39.9438608777 8.84195917938 30.1015886484
545 31 2 40.3766394208 8.8731253579 29.1607478473
546 31 2 40.5154650716 8.89694210163 28.134292679
547 31 2 40.3482124569 8.93013461514 27.1123460898
548 31 2 39.8906544193 8.98857352665 26.1846200812
549 31 2 39.1850243648 9.08582832266 25.4322387005
550 31 2 38.2961668008 9.23193052557 24.9203438008
551 31 2 37.3056269322 9.43245934716 24.6921575353
552 31 2 36.3042180346 9.68803315843 24.7650427735
553 31 2 35.3837440662 9.99425312667 25.1289205218
554 31 2 34.6286319829 10.3421041573 25.7471885973
555 31 2 34.1082364466 10.7187765958 26.5600578187
556 31 2 33.8705183334 11.1088337931 27.4900016303
557 31 2 33.9376732278 11.4956191155 28.4488224403
558 31 2 34.3041083546 11.8627741515 29.3456905959
559 32 1 8.84383949195 35.4930455895 12.7388319135
560 32 1 8.71553824071 35.1425865321 18.2505202483
561 32 2 8.82405752613 36.009067405 12.5370603896
562 32 2 8.60200442441 36.9938046785 12.303747438
563 32 2 8.16710654066 37.9340184966 12.2860890659
564 32 2 7.56983788217 38.753567654 12.4983609183
565 32 2 6.8754721184 39.3873092068 12.9338811148
566 32 2 6.15813306042 39.7870360774 13.5656192852
567 32 2 5.49403847368 39.9258710013 14.3486603154
568 32 2 4.95455303238 39.8007163174 15.22429824
569 32 2 4.59968362015 39.4325363119 16.125387134
570 32 2 4.47260986302 38.8644463795 16.9824612849
571 32 2 4.59574842191 38.1577831705 17.7300668062
572 32 2 4.96870977388 37.3865139187 18.3127275844
573 32 2 5.56833371612 36.6304945264 18.6900017784
574 32 2 6.35080035653 35.9681909117 18.8401679855
575 32 2 7.25562417978 35.4695270501 18.7622050889
576 32 2 8.21116714035 35.1895115911 18.4758853299
577 33 1 30.7126972662 21.6158024515 39.9214902905
578 33 1 25.1939423729 21.6956364575 39.6870504898
579 33 2 30.9646138115 21.4757883807 39.4478705039
580 33 2 31.2859541487 21.0325378666 38.5682573045
581 33 2 31.3785247041 20.3969078463 37.7553273071
582 33 2 31.2227765992 19.6355262571 37.0701334552
583 33 2 30.821794538 18.8264829557 36.5620858843
584 33 2 30.201015644 18.0522120367 36.2644483195
585 33 2 29.4059109347 17.3919781848 36.1913061765
586 33 2 28.4978407595 16.9146519107 36.3362827133
587 33 2 27.5484619682 16.6724321886 36.673120253
588 33 2 26.6331965807 16.6960886586 37.1580735013
589 33 2 25.8243572712 16.9921570566 37.7338968129
590 33 2 25.1845562611 17.5423434994 38.335061979
591 33 2 24.760998383 18.305191923 38.8937309486
592 33 2 24.5811784859 19.2198626926 39.3459390855
593 33 2 24.650375353 20.2116779721 39.6374253736
594 33 2 24.9511705554 21.1989284095 39.728578164