LAMMPS input file for bananas

4320 atoms

2 atom types

0 80.0 xlo xhi
0 80.0 ylo yhi
0 80.0 zlo zhi

Masses

 1 1
 2 1

Atoms

1 1 1 65.5018486088 61.0388519266 42.3799787849
2 1 1 62.5124080896 57.7629038485 45.6738216216
3 1 2 65.479901955 61.5785349125 42.5050475942
4 1 2 65.2065060178 62.550564532 42.7371318281
5 1 2 64.6538758483 63.3968974927 42.9646629833
6 1 2 63.8722718438 64.0399422357 43.1861097033
7 1 2 62.9328247543 64.4206363796 43.4004952114
8 1 2 61.9210523055 64.5038300991 43.6074863417
9 1 2 60.929064486 64.2814899373 43.8074239059
10 1 2 60.0471679684 63.7734310341 44.0012916295
11 1 2 59.3556348975 63.0255110287 44.1906264877
12 1 2 58.9173862985 62.105450259 44.3773786144
13 1 2 58.7722569942 61.0966592334 44.5637335522
14 1 2 58.9333647669 60.0906359859 44.7519130469
15 1 2 59.3859147081 59.178626275 44.9439725405
16 1 2 60.0885477343 58.4433067765 45.1416138236
17 1 2 60.9771103574 57.9512493257 45.3460299215
18 1 2 61.9705021035 57.7468530723 45.5577963532
19 2 1 4.62509635214 11.6147492806 3.02295897442
20 2 1 6.67245613307 7.41787240391 5.97465907272
21 2 2 4.07491637911 11.6060796514 2.95507360894
22 2 2 3.08558626423 11.3681151308 2.76001253663
23 2 2 2.22095072147 10.8565649332 2.50669103208
24 2 2 1.55387677205 10.111699333 2.23532855336
25 2 2 1.13922422601 9.19505468018 1.98778894511
26 2 2 1.00884535712 8.18382452607 1.80376466102
27 2 2 1.16868165328 7.16382363772 1.71715890272
28 2 2 1.59822226578 6.22166621115 1.7529954336
29 2 2 2.25237351833 5.43687121889 1.92513772965
30 2 2 3.06556907513 4.87461446818 2.23502536069
31 2 2 3.95774613712 4.57978800033 2.6715427774
32 2 2 4.84164295216 4.57290830115 3.21203246396
33 2 2 5.63075249049 4.8482462781 3.82436011003
34 2 2 6.24720732926 5.37434945176 4.46984356729
35 2 2 6.62887706004 6.09690876527 5.10677862383
36 2 2 6.73503130945 6.94370870969 5.69424023162
37 3 1 47.5915648672 20.0683835982 44.5344213991
38 3 1 45.7888681372 17.3542669198 48.9955699303
39 3 2 47.3711759509 20.5720096671 44.4625110635
40 3 2 46.7558199401 21.3989349432 44.3577180352
41 3 2 45.9253199945 22.0169059351 44.3149196149
42 3 2 44.9543451179 22.3760192482 44.3560951956
43 3 2 43.9303682283 22.4499656735 44.4955701642
44 3 2 42.9456932356 22.2384282016 44.7387101815
45 3 2 42.089041787 21.7671109173 45.081432116
46 3 2 41.4374665257 21.085396141 45.5105762104
47 3 2 41.0493279486 20.2618433622 46.005105559
48 3 2 40.9589750028 19.3779402251 46.5380235645
49 3 2 41.1736142712 18.5206751478 47.0788346063
50 3 2 41.6726531115 17.7746085606 47.5963236347
51 3 2 42.4095766205 17.2141654484 48.0614013391
52 3 2 43.3161873433 16.8968517127 48.4497555609
53 3 2 44.3088212889 16.8580126619 48.7440672821
54 3 2 45.2959736797 17.1076113814 48.9355892072
55 4 1 72.1631904095 41.1564422129 62.2747155123
56 4 1 75.7884143434 38.9368129763 65.8030279336
57 4 2 71.833938565 40.7917519347 62.017857941
58 4 2 71.4215817819 40.0012822833 61.4900609869
59 4 2 71.3023388645 39.1224017335 60.9545237641
60 4 2 71.4836240733 38.2225382333 60.4740746355
61 4 2 71.9454593334 37.3710322704 60.1065208313
62 4 2 72.6422951825 36.6328166725 59.8993794748
63 4 2 73.5071624827 36.0624981531 59.8855465232
64 4 2 74.4577764786 35.6993800557 60.0802983895
65 4 2 75.4040368324 35.5638799595 60.4798995379
66 4 2 76.2562400294 35.6556686707 61.0619429682
67 4 2 76.9332556133 35.9537002287 61.7873925535
68 4 2 77.3699210103 36.4181301884 62.6041410795
69 4 2 77.5229809239 36.9939473352 63.4517596774
70 4 2 77.3750299395 37.61598781 64.2670057538
71 4 2 76.936098981 38.2148746211 64.9895873841
72 4 2 76.2427410196 38.7233411711 65.5676587603
73 5 1 51.629146395 48.3388890331 23.7465741751
74 5 1 46.4896877356 46.3130991647 23.7580266014
75 5 2 51.7122134682 48.7631746723 23.3994961639
76 5 2 51.7661777405 49.4127972072 22.5941835347
77 5 2 51.6706999903 49.8328548633 21.6519067304
78 5 2 51.4179953936 49.9947768076 20.6602557425
79 5 2 51.0146099332 49.8935205873 19.7113208872
80 5 2 50.4808237501 49.548031736 18.8932990199
81 5 2 49.8488026622 48.9995169387 18.2824546266
82 5 2 49.1596663368 48.3076881529 17.9361685204
83 5 2 48.4597403424 47.5453200229 17.8877077338
84 5 2 47.7963336968 46.7916166658 18.1431933171
85 5 2 47.2134267769 46.1249924279 18.6810424218
86 5 2 46.7476626247 45.6159246264 19.4539355186
87 5 2 46.4250070322 45.3205297304 20.3931294471
88 5 2 46.2583818284 45.2754484949 21.41472317
89 5 2 46.2464870895 45.4945062537 22.4273051295
90 5 2 46.3739196236 45.9674527772 23.3402851656
91 6 1 54.8143325769 36.1404561998 36.7269692218
92 6 1 58.7004225659 35.6118096545 40.6175769492
93 6 2 54.6220904136 35.6623790459 36.5223555038
94 6 2 54.4912572364 34.7196247106 36.1130305054
95 6 2 54.6664653127 33.7792871909 35.7148879553
96 6 2 55.1312581107 32.9160262816 35.3799278554
97 6 2 55.8427842255 32.1974764507 35.1543912958
98 6 2 56.7357031695 31.678082138 35.0745457038
99 6 2 57.7281409838 31.3941352904 35.163379164
100 6 2 58.7291528303 31.3604674473 35.4285051164
101 6 2 59.6470123709 31.569097886 35.8614684116
102 6 2 60.3975723778 31.989961043 36.4385159749
103 6 2 60.9119345287 32.5736469097 37.1227618356
104 6 2 61.1427293044 33.2559046227 37.8675491849
105 6 2 61.0684335943 33.9634987584 38.620703019
106 6 2 60.6953324698 34.6208845459 39.3292857513
107 6 2 60.0569463174 35.1570935709 39.9444223321
108 6 2 59.2109755449 35.5122023575 40.4257550787
109 7 1 59.8848785101 71.8893223517 11.1351045605
110 7 1 60.6377668728 76.7900112966 13.5711665548
111 7 2 59.7347124959 71.9140876101 10.6019831501
112 7 2 59.2917253651 72.1103649265 9.6861842485
113 7 2 58.6827698645 72.497719345 8.94282715806
114 7 2 57.9738341033 73.0556535111 8.4333474589
115 7 2 57.2400191242 73.7481221825 8.197863432
116 7 2 56.5586936443 74.5268176558 8.25151938515
117 7 2 56.0024421029 75.3355728856 8.58310528976
118 7 2 55.6324487842 76.1154809598 9.156078545
119 7 2 55.4929210333 76.8102643073 9.91189473821
120 7 2 55.6070598747 77.3714042486 10.7753438116
121 7 2 55.974945301 77.7625633432 11.6614052581
122 7 2 56.5735289818 77.9628974508 12.4829975132
123 7 2 57.3587350574 77.9689556182 13.1589152069
124 7 2 58.2694775356 77.7949946253 13.6212308162
125 7 2 59.2332281166 77.4716795171 13.8214860769
126 7 2 60.1726269539 77.0432885671 13.7351088255
127 8 1 30.8059379004 55.4730103785 1.8750489101
128 8 1 26.243624036 54.4728064386 4.8251125269
129 8 2 31.1231532713 55.8848238053 2.06783298121
130 8 2 31.5133270985 56.7738966556 2.42944584387
131 8 2 31.608453876 57.7442867154 2.77979429791
132 8 2 31.3984371458 58.7050025008 3.10593562308
133 8 2 30.900993465 59.5659343121 3.39713351425
134 8 2 30.1600375891 60.2460674925 3.64583666687
135 8 2 29.2416797592 60.6808666967 3.84836705825
136 8 2 28.2281999305 60.828158116 4.00525518948
137 8 2 27.210548174 60.6719735076 4.12119173168
138 8 2 26.2800548209 60.2240056578 4.20459998383
139 8 2 25.5201059468 59.5225426151 4.26686811162
140 8 2 24.998542954 58.6289778375 4.32131114658
141 8 2 24.7614790087 57.6222143429 4.38195735654
142 8 2 24.8290959494 56.5914729092 4.46226960648
143 8 2 25.1938047661 55.6281598399 4.57391825444
144 8 2 25.8209373186 54.8175355229 4.7257174295
145 9 1 44.5960109432 42.1649302467 11.2401847394
146 9 1 47.9191573692 45.4275723238 8.26867745034
147 9 2 44.1777993299 41.9369618672 10.9564400434
148 9 2 43.3591365414 41.7321713539 10.355355943
149 9 2 42.5651564661 41.8271321402 9.69654785249
150 9 2 41.8766215611 42.2092567452 9.02323478856
151 9 2 41.3646832384 42.8397834735 8.37995785763
152 9 2 41.0843966032 43.6573094399 7.80852045285
153 9 2 41.0697023289 44.5833872787 7.34417798657
154 9 2 41.3303330548 45.529675411 7.01242445374
155 9 2 41.8509262824 46.4059901437 6.82666872238
156 9 2 42.592424626 47.1285256722 6.78701235116
157 9 2 43.495635789 47.627492755 6.88024033254
158 9 2 44.4866277834 47.8534798173 7.08102560541
159 9 2 45.4834676333 47.7819566832 7.35423754902
160 9 2 46.4036893462 47.4155104363 7.65814404517
161 9 2 47.1718104681 46.7836096134 7.94821524921
162 9 2 47.7262121072 45.9399182267 8.18118236642
163 10 1 58.0603603462 6.86162993939 2.6294157669
164 10 1 54.2902850669 3.86944244695 5.3407507627
165 10 2 58.0417848703 7.40668543314 2.72917070904
166 10 2 57.7783640633 8.39917221298 2.86711809572
167 10 2 57.2363312318 9.27852725657 2.94702509165
168 10 2 56.4610215782 9.96499087897 2.98038146031
169 10 2 55.5190328639 10.3963849327 2.98291993042
170 10 2 54.4921552014 10.5337801798 2.97318219983
171 10 2 53.4699161035 10.3650445876 2.97082890922
172 10 2 52.5414202907 9.90594913141 2.99484762735
173 10 2 51.7872280333 9.1987303119 3.06182218484
174 10 2 51.2720122985 8.30824041124 3.18442110236
175 10 2 51.0386639821 7.31603638075 3.37024288887
176 10 2 51.1043825183 6.31294614288 3.62112345775
177 10 2 51.4591081969 5.39078986872 3.9329687883
178 10 2 52.066439079 4.63401081495 4.29612808471
179 10 2 52.8669489368 4.11197854658 4.69627342035
180 10 2 53.7836037949 3.87266608657 5.11570568995
181 11 1 28.7803883957 37.6033970306 54.5027475474
182 11 1 23.3682877621 36.4957995268 54.5223832845
183 11 2 28.9085206278 38.1417529744 54.4690340939
184 11 2 28.9985275891 39.144498268 54.2243902011
185 11 2 28.8762119626 40.0691691421 53.7733107478
186 11 2 28.5391134098 40.8394268317 53.1679037207
187 11 2 28.0043484821 41.3930069209 52.4743436525
188 11 2 27.3070504926 41.6873945777 51.7668399899
189 11 2 26.4971672086 41.7036996678 51.1208731011
190 11 2 25.6349082459 41.4483785395 50.6063144417
191 11 2 24.7852571237 40.952645545 50.2810579584
192 11 2 24.0120481901 40.2696279355 50.1857432107
193 11 2 23.3721482919 39.4695234541 50.3400511833
194 11 2 22.9102735138 38.6332019997 50.7409104172
195 11 2 22.6549134266 37.8448345511 51.3627769649
196 11 2 22.615734339 37.184221208 52.1599626529
197 11 2 22.7826982392 36.7195176246 53.0707994367
198 11 2 23.1269777333 36.5010228041 54.0232602782
199 12 1 35.2153497215 65.642560777 28.8209384666
200 12 1 31.1676312968 68.018952872 25.9077396705
201 12 2 35.5468560898 65.9953998003 29.0911045998
202 12 2 36.1796062698 66.7608189667 29.3864192125
203 12 2 36.7681922597 67.6134564693 29.3915018092
204 12 2 37.2464683287 68.4889386722 29.1118003158
205 12 2 37.5583432004 69.3208097062 28.5787199668
206 12 2 37.6628926226 70.0465887435 27.8467608023
207 12 2 37.5380895041 70.6134649584 26.9885501348
208 12 2 37.1828116244 70.9831110925 26.0882227639
209 12 2 36.6169439217 71.1351768824 25.233752314
210 12 2 35.8795660336 71.0691439314 24.5089326739
211 12 2 35.0253902927 70.80437296 23.9857404075
212 12 2 34.1197748438 70.3783391283 23.7177742826
213 12 2 33.2327664235 69.843216275 23.7353698863
214 12 2 32.4327157875 69.2611214114 24.0428346172
215 12 2 31.7800477219 68.6984529222 24.6180550781
216 12 2 31.3217534854 68.21983853 25.4145126523
217 13 1 7.85624932763 41.1211348608 36.3107211444
218 13 1 8.30849505316 39.0106126123 41.3959114756
219 13 2 7.38527411492 40.9953387974 36.0466391733
220 13 2 6.56004015476 40.5403360194 35.6160449394
221 13 2 5.86136413502 39.8376207167 35.3135667849
222 13 2 5.34010631268 38.9520802373 35.1810588483
223 13 2 5.03095575025 37.9652659556 35.2448829372
224 13 2 4.94926850042 36.9679600822 35.5135057197
225 13 2 5.08966794286 36.0519011084 35.9767270104
226 13 2 5.42653484886 35.3014220875 36.60660949
227 13 2 5.91634250549 34.7857639031 37.3600251173
228 13 2 6.50162405919 34.5527641467 38.1825861349
229 13 2 7.11621046587 34.6244968499 39.0136023677
230 13 2 7.69126162239 34.9952604948 39.7916129705
231 13 2 8.16154095801 35.6320976928 40.4599884196
232 13 2 8.47136157344 36.4777991616 40.9720921425
233 13 2 8.57966195285 37.4561181993 41.2955313168
234 13 2 8.46374861133 38.4787203668 41.4151093896
235 14 1 22.4138670361 41.7243909438 29.053613565
236 14 1 23.680796209 37.2799135678 32.0800805458
237 14 2 22.6735715972 41.7559011624 28.5647963853
238 14 2 23.3511353392 41.7760621681 27.7812461824
239 14 2 24.2234758479 41.7289216968 27.2242454426
240 14 2 25.2111848188 41.600383554 26.9390105469
241 14 2 26.2243384206 41.3837707256 26.9459871457
242 14 2 27.1706936117 41.0804339695 27.2389865925
243 14 2 27.9640958471 40.6996286978 27.7857500232
244 14 2 28.5323318351 40.257671371 28.5308886642
245 14 2 28.8237115854 39.7764522957 29.4009323723
246 14 2 28.8117798139 39.2814403821 30.3110262407
247 14 2 28.4977272712 38.7993617207 31.172664898
248 14 2 27.9102822083 38.3557635705 31.9017595355
249 14 2 27.103091874 37.9726857951 32.4263023778
250 14 2 26.1498327113 37.6666519872 32.6929299988
251 14 2 25.1374949462 37.4471633883 32.6717872556
252 14 2 24.1584536618 37.315832875 32.3592485046
253 15 1 13.747885429 57.8304423303 47.9251734092
254 15 1 9.71201836733 56.6738493767 44.3346217996
255 15 2 13.6475377006 58.2621049691 48.2583089489
256 15 2 13.4077294328 59.1779764225 48.6791669851
257 15 2 13.1036237812 60.1600014599 48.8079947374
258 15 2 12.744197316 61.116514158 48.6366877448
259 15 2 12.3434689513 61.9581739748 48.1844980262
260 15 2 11.9192221594 62.6061089019 47.4962793103
261 15 2 11.4913840541 62.9991044364 46.6383987378
262 15 2 11.0802090878 63.0991831198 45.6926876744
263 15 2 10.7044329125 62.8950660817 44.7489830002
264 15 2 10.3795646748 62.4032010787 43.8969387184
265 15 2 10.1164733991 61.6662633252 43.2178542323
266 15 2 9.92039730456 60.7492657618 42.7772641222
267 15 2 9.79046635591 59.7336332997 42.6189648432
268 15 2 9.7197815645 58.7097811573 42.7610227961
269 15 2 9.69604381285 57.768873755 43.1941276223
270 15 2 9.70267488627 56.9945153217 43.882440819
271 16 1 38.6909635905 32.56575937 7.27193651487
272 16 1 37.2050724494 28.0706443752 4.42517348271
273 16 2 38.2743550326 32.8309897946 7.52387245799
274 16 2 37.3951873054 33.3143902901 7.78240307436
275 16 2 36.4470084295 33.7307657877 7.75018079221
276 16 2 35.5053354891 34.0275157659 7.43610829297
277 16 2 34.6450925694 34.1629432494 6.87477815204
278 16 2 33.9337816273 34.1100553771 6.12331981801
279 16 2 33.4253298677 33.8590237292 5.25619241611
280 16 2 33.1551744234 33.4180801617 4.35839799791
281 16 2 33.1370323548 32.8127664943 3.51773383159
282 16 2 33.3616503767 32.0836064419 2.81678991556
283 16 2 33.7976482707 31.2824119866 2.32542112084
284 16 2 34.3943791078 30.4675608537 2.0943801063
285 16 2 35.0865455808 29.698675538 2.15069134944
286 16 2 35.8001516797 29.0311888732 2.4951879375
287 16 2 36.4592472295 28.5112914769 3.10243563377
288 16 2 36.9928505464 28.1717215991 3.92305114031
289 17 1 68.4918074124 54.7752270934 75.3081444687
290 17 1 66.7380581576 50.9025543542 78.8358576752
291 17 2 68.4701900964 55.29437908 75.5015236159
292 17 2 68.2087272141 56.2062046453 75.9182505177
293 17 2 67.6862052949 56.9671868526 76.388704485
294 17 2 66.9554402806 57.5055138649 76.8883408857
295 17 2 66.0882289146 57.7696682709 77.3899551873
296 17 2 65.1688046604 57.73312276 77.8661625766
297 17 2 64.2861600469 57.3967580149 78.2918940127
298 17 2 63.5259352369 56.7887824404 78.6466812029
299 17 2 62.9626121555 55.9621610424 78.916522233
300 17 2 62.6527256614 54.9897878091 79.095157804
301 17 2 62.6297105456 53.9578416192 79.1846417509
302 17 2 62.9008540399 52.9579312669 79.195153841
303 17 2 63.446631605 52.0787455656 79.1440719152
304 17 2 64.2224865401 51.3979695993 79.0543879443
305 17 2 65.1628912068 50.975203935 78.9526123724
306 17 2 66.1873196988 50.8465321903 78.8663577606
307 18 1 52.2371258616 65.8671822426 58.2304394206
308 18 1 49.353711339 67.0607941804 62.7888604515
309 18 2 51.9509704176 65.6037865777 57.8353199783
310 18 2 51.3557334734 64.9684853151 57.2735946922
311 18 2 50.7154652195 64.2060707769 56.9868358281
312 18 2 50.0713974124 63.3946611634 57.0023635549
313 18 2 49.4651081277 62.6168404455 57.3199454263
314 18 2 48.9347320295 61.9521310555 57.9118175684
315 18 2 48.5114844979 61.469745631 58.7252152819
316 18 2 48.2168164307 61.222278467 59.6871824041
317 18 2 48.0604590508 61.2409116873 60.7112210674
318 18 2 48.0395369321 61.5325730767 61.7051757495
319 18 2 48.1388300859 62.0793046321 62.5796330024
320 18 2 48.3321612231 62.8398993866 63.2560712493
321 18 2 48.5847817437 63.7536573144 63.6740178168
322 18 2 48.8565389787 64.7459179756 63.7965608568
323 18 2 49.1055359989 65.734865616 63.6137137636
324 18 2 49.2919504078 66.6389864547 63.1433254257
325 19 1 20.037521893 62.5601992012 42.4323449815
326 19 1 16.7810821955 58.0980177214 42.4826241932
327 19 2 19.8058016711 63.0207898762 42.6361673474
328 19 2 19.1976725051 63.8263734467 42.8699707685
329 19 2 18.4028654645 64.4899794786 42.9068328616
330 19 2 17.483602742 64.9441647743 42.7580989542
331 19 2 16.5134503328 65.1405742767 42.4520309526
332 19 2 15.5706126914 65.0543485031 42.0312313458
333 19 2 14.730804604 64.6863894211 41.5487601017
334 19 2 14.0603499883 64.063278236 41.0632983931
335 19 2 13.6101366459 63.2348525855 40.6337999658
336 19 2 13.4109779747 62.2696639721 40.3141176619
337 19 2 13.4708044107 61.2487294767 40.1480948775
338 19 2 13.7739405892 60.2581472686 40.1655693541
339 19 2 14.282534113 59.3812489869 40.3796535484
340 19 2 14.9400056971 58.6910042849 40.7855394668
341 19 2 15.6762062189 58.2433698409 41.3609369011
342 19 2 16.4138106239 58.0721890567 42.0681051215
343 20 1 54.6503392351 22.5377434386 34.9905817351
344 20 1 52.717140438 19.9359012613 39.4639642089
345 20 2 54.6843222412 23.0891280577 35.0375044928
346 20 2 54.5251502506 24.1001618174 35.1985169934
347 20 2 54.095113313 25.0066498986 35.4569693143
348 20 2 53.4391828212 25.7279826051 35.8075179237
349 20 2 52.6229197614 26.2004266583 36.2364249591
350 20 2 51.7264990051 26.3829343153 36.7228103968
351 20 2 50.8374015835 26.2608847603 37.2405552106
352 20 2 50.0424410254 25.847416754 37.7606820508
353 20 2 49.4198505361 25.1822310694 38.2539964525
354 20 2 49.0321522499 24.3279718737 38.6937478328
355 20 2 48.9204585044 23.3645168787 39.058067735
356 20 2 49.1007245613 22.381696702 39.3319630802
357 20 2 49.5622943265 21.4711070454 39.508682746
358 20 2 50.2688716247 20.7177599919 39.5903329136
359 20 2 51.1618284988 20.1923353816 39.5876850947
360 20 2 52.1655489917 19.944738533 39.5191943373
361 21 1 22.2268711581 51.184639212 15.576557981
362 21 1 17.7685256279 52.4385249843 18.5880221872
363 21 2 22.2036956426 51.3458855717 15.0466107242
364 21 2 21.9514371439 51.5392356707 14.0604913601
365 21 2 21.4412724575 51.5915079735 13.1602416112
366 21 2 20.7108908685 51.5149472829 12.4293988058
367 21 2 19.8180538436 51.3335411844 11.9360592821
368 21 2 18.8353302287 51.0808336423 11.7266715889
369 21 2 17.843481792 50.7968675569 11.8218028246
370 21 2 16.9241020046 50.5245349611 12.2142640012
371 21 2 16.1521790143 50.3056675265 12.8697653012
372 21 2 15.5892606757 50.1772237181 13.7300415029
373 21 2 15.2778446281 50.1679201289 14.7181626998
374 21 2 15.2375047491 50.2956140394 15.7455462555
375 21 2 15.4631070481 50.5656757744 16.7200308747
376 21 2 15.9252776159 50.9704992117 17.5542768589
377 21 2 16.5730799777 51.4901950604 18.173726886
378 21 2 17.3386578169 52.094403716 18.5234017117
379 22 1 17.0065332771 61.0906030721 73.1988428958
380 22 1 12.6738072009 59.5464617312 70.1392508757
381 22 2 16.8932482039 61.1852780221 73.7332441814
382 22 2 16.5092512787 61.4960583967 74.6439647376
383 22 2 15.922081677 61.9436411589 75.3708426785
384 22 2 15.172497575 62.4733770888 75.8514189261
385 22 2 14.3160607967 63.0231289249 76.0456841434
386 22 2 13.4180725019 63.5289350092 75.9397254787
387 22 2 12.54762116 63.9308392215 75.5469946846
388 22 2 11.7712853207 64.1783558197 74.9070820269
389 22 2 11.1470651575 64.23507108 74.0821077374
390 22 2 10.7190959063 64.0819623104 73.1510599213
391 22 2 10.5136250569 63.7191317188 72.2025950021
392 22 2 10.5366199646 63.1657970962 71.3269569256
393 22 2 10.7732239415 62.4585401673 70.6077516658
394 22 2 11.189110404 61.6479722633 70.1143267633
395 22 2 11.7336116491 60.7941212347 69.8954504827
396 22 2 12.3443370802 59.9609600732 69.9748667156
397 23 1 26.4164121658 64.4531460179 25.6953488546
398 23 1 22.8180275337 61.0459896783 28.1368452765
399 23 2 26.8227464381 64.6382457867 26.0240008329
400 23 2 27.4043466142 65.0379367231 26.7825773957
401 23 2 27.7122172238 65.4621096828 27.6763016257
402 23 2 27.7221357811 65.8565410417 28.6343076468
403 23 2 27.4370373335 66.169718043 29.5798704698
404 23 2 26.8867469399 66.3575340476 30.4373992695
405 23 2 26.1252611964 66.387308736 31.1393272868
406 23 2 25.2258265905 66.2407668323 31.6322703579
407 23 2 24.27426328 65.9157038469 31.8818927384
408 23 2 23.3611428148 65.4261870093 31.8760367143
409 23 2 22.5735327822 64.8012730785 31.6258307457
410 23 2 21.9870608288 64.0823598964 31.1646751368
411 23 2 21.6590214033 63.3194130854 30.5451976876
412 23 2 21.6231535198 62.5664118156 29.8344568109
413 23 2 21.8865655375 61.8764287475 29.1078293369
414 23 2 22.4290872524 61.2967926011 28.4421401168
415 24 1 12.6788471543 17.3992947378 13.1923023276
416 24 1 15.3131000511 17.3317458211 18.047623108
417 24 2 12.3712674579 17.8511797797 13.0996944049
418 24 2 11.7094517997 18.6473227722 13.1397740908
419 24 2 10.9972400182 19.3286033688 13.4592441805
420 24 2 10.3105012635 19.8467313694 14.0366376936
421 24 2 9.72278288747 20.1682874972 14.826978619
422 24 2 9.298606799 20.277769476 15.7658813581
423 24 2 9.08758846462 20.1790050216 16.7754193001
424 24 2 9.11991459131 19.8948029555 17.7712276242
425 24 2 9.40359168881 19.4648742419 18.6701929276
426 24 2 9.92371629769 18.9422124394 19.39802879
427 24 2 10.6438333998 18.3882634799 19.8960467823
428 24 2 11.5092591958 17.867325036 20.12650576
429 24 2 12.4520653872 17.4406859598 20.0760518676
430 24 2 13.3972706595 17.1610399685 19.7569357068
431 24 2 14.269675028 17.0676827521 19.2058957273
432 24 2 15.0007141163 17.182930277 18.4808096147
433 25 1 56.9804627069 17.635795214 14.5900043513
434 25 1 54.6523590172 22.171981722 16.7162536866
435 25 2 56.8260909123 17.5152099322 14.0713424895
436 25 2 56.3206371493 17.3160293944 13.1891329804
437 25 2 55.5737001162 17.1814744427 12.4838457732
438 25 2 54.6522503913 17.1412877284 12.0118654306
439 25 2 53.6391649184 17.2166104902 11.8083112187
440 25 2 52.6256729945 17.418055587 11.8838360787
441 25 2 51.7030409639 17.7447401638 12.2236556406
442 25 2 50.9542535343 18.1843661216 12.7888957785
443 25 2 50.4464499426 18.7143410566 13.5201358839
444 25 2 50.224804393 19.3038374972 14.3428248944
445 25 2 50.3084085491 19.9166027455 15.1740764248
446 25 2 50.6885313795 20.5142632141 15.9302236387
447 25 2 51.3294149685 21.0598220759 16.5344452578
448 25 2 52.1715337538 21.5210314259 16.9237676154
449 25 2 53.137020123 21.8733315917 17.0548045382
450 25 2 54.1367618383 22.1020896821 16.90771188
451 26 1 60.8784167439 72.1372009997 8.08577832093
452 26 1 57.2196279302 72.7710751752 12.1759444554
453 26 2 61.3385687261 71.8609130145 8.22472683857
454 26 2 62.2038861013 71.4971897957 8.66333973336
455 26 2 63.0008851905 71.3489850064 9.30853567518
456 26 2 63.6499619757 71.4163142283 10.1132816687
457 26 2 64.0849951613 71.6795476938 11.0160021577
458 26 2 64.2593729538 72.1011994873 11.9461914726
459 26 2 64.1502416023 72.629344286 12.8308402339
460 26 2 63.7605884563 73.2023502143 13.6010899617
461 26 2 63.1189696773 73.7544964244 14.1985093422
462 26 2 62.2769074208 74.2219633764 14.580420086
463 26 2 61.3041937295 74.548649818 14.7237869398
464 26 2 60.2825291751 74.6912862645 14.6273172882
465 26 2 59.2980760698 74.6233788961 14.3115789725
466 26 2 58.4336050016 74.3376243993 13.8171255865
467 26 2 57.7609505165 73.8465756437 13.2008001251
468 26 2 57.3344635915 73.1814975222 12.530553897
469 27 1 46.6078409683 32.6225085111 38.8932738099
470 27 1 45.3265482253 34.6299924728 33.908668699
471 27 2 47.0185379931 32.250086017 38.8965946188
472 27 2 47.6595384683 31.4528645353 38.7322586488
473 27 2 48.0952639981 30.5945424898 38.3490138967
474 27 2 48.2979304448 29.7605891966 37.7685845493
475 27 2 48.2609963831 29.0342528252 37.0306676421
476 27 2 47.9997593335 28.4889725503 36.189314781
477 27 2 47.5499614346 28.1816847673 35.3080054824
478 27 2 46.9645316424 28.147633492 34.4538611854
479 27 2 46.3087613972 28.397157963 33.6915273115
480 27 2 45.654353484 28.9147502473 33.077281008
481 27 2 45.0728865145 29.6604687474 32.6539016354
482 27 2 44.6292907285 30.573578771 32.4467715441
483 27 2 44.3759297759 31.5780883355 32.4615625401
484 27 2 44.3478279101 32.5896746349 32.6837189156
485 27 2 44.5594776207 33.5233698374 33.0797841628
486 27 2 45.0035186818 34.3013056766 33.6004504449
487 28 1 45.9475118298 72.3972781863 15.7612165279
488 28 1 45.1647795197 76.6202338645 19.2356900897
489 28 2 46.3804152514 72.453193617 15.4193837029
490 28 2 47.0931825195 72.7677481801 14.7363988865
491 28 2 47.6349903247 73.3362963555 14.0606420622
492 28 2 47.9694036144 74.1154066829 13.4651549837
493 28 2 48.0788907919 75.0424555244 13.0156630321
494 28 2 47.9664216746 76.0413350422 12.7645845228
495 28 2 47.6551968026 77.0293902241 12.7462529163
496 28 2 47.1865327723 77.9249526673 12.9737874149
497 28 2 46.616096338 78.654784435 13.4378971827
498 28 2 46.0088305371 79.1607534984 14.1077281801
499 28 2 45.4330353051 79.4051323159 14.9336754275
500 28 2 44.9541421192 79.3740365976 15.8519043663
501 28 2 44.6287500944 79.0786908213 16.7901692083
502 28 2 44.4994671247 78.5544051513 17.6743979464
503 28 2 44.5910262882 77.8573570114 18.4354438198
504 28 2 44.9080314928 77.0594706627 19.0153878567
505 29 1 41.3529049161 53.2481003038 45.7608780454
506 29 1 37.9816387006 49.4600147429 43.5693117222
507 29 2 41.1925232101 53.4467663503 46.2530071934
508 29 2 40.6876066793 53.8508825569 47.0624510764
509 29 2 39.9513601045 54.2518640756 47.6712242804
510 29 2 39.0437900701 54.5974256945 48.0322697228
511 29 2 38.0405188361 54.8403335773 48.1211100442
512 29 2 37.025891571 54.9427105015 47.9380786548
513 29 2 36.0852885153 54.8794882658 47.5082893441
514 29 2 35.2973428003 54.6406925897 46.8793472271
515 29 2 34.7267732492 54.2323522426 46.1170096645
516 29 2 34.4184854284 53.6759495375 45.2991926553
517 29 2 34.3934786261 53.0064622755 44.508869002
518 29 2 34.6469318223 52.2691756128 43.826505561
519 29 2 35.1486431126 51.51555444 43.322728904
520 29 2 35.8457825311 50.7985524943 43.0518878946
521 29 2 36.6677073599 50.1677857686 43.0470999348
522 29 2 37.5324010249 49.6650101456 43.3172324021
523 30 1 14.0863230768 32.035917334 20.4633686696
524 30 1 9.35188311037 31.1084405936 23.1546241688
525 30 2 14.2557840401 32.5638039322 20.4639249438
526 30 2 14.3525101417 33.5929311647 20.3932764352
527 30 2 14.152485043 34.5994216975 20.2503891425
528 30 2 13.6691912639 35.4971371463 20.0660413533
529 30 2 12.9419305075 36.2098536847 19.8747903688
530 30 2 12.0322414145 36.6782096429 19.711822698
531 30 2 11.0182904813 36.8651161647 19.6097469013
532 30 2 9.987747392 36.7591377575 19.5956214075
533 30 2 9.02979416167 36.3755346077 19.6884882107
534 30 2 8.2269964336 35.7548716546 19.8976372427
535 30 2 7.64777784177 34.959321205 20.2217596211
536 30 2 7.34018337949 34.0669960936 20.6490669503
537 30 2 7.32750022661 33.164829907 21.1583658023
538 30 2 7.60613518538 32.3406532194 21.7209894406
539 30 2 8.14594219081 31.6751880705 22.3034107174
540 30 2 8.89297004389 31.2346903676 22.8702979828
541 31 1 55.235019474 4.659760833 10.2181596502
542 31 1 59.8205453409 3.28753185167 12.9764075013
543 31 2 54.9133249971 5.03375044135 10.4711932931
544 31 2 54.3345318889 5.58780652558 11.1280573617
545 31 2 53.8421981285 5.9196644834 11.97713202
546 31 2 53.4942582146 6.01085299893 12.9487659439
547 31 2 53.3354855328 5.86483713267 13.96213686
548 31 2 53.3934113812 5.50670249055 14.9326182794
549 31 2 53.675815566 4.98086873794 15.7794929763
550 31 2 54.1700172928 4.34704086596 16.4333101472
551 31 2 54.8440309877 3.67476724104 16.8422156664
552 31 2 55.6494816961 3.03710045723 16.9766784502
553 31 2 56.5260143313 2.50393878751 16.832182137
554 31 2 57.4067948788 2.13565514305 16.4296367412
555 31 2 58.2246021381 1.97759424367 15.8134727616
556 31 2 58.9179547559 2.05593956787 15.0475914595
557 31 2 59.4367150865 2.37532679872 14.2095404305
558 31 2 59.7466591049 2.91842129376 13.3834453475
559 32 1 65.8708699083 56.3758566192 71.5270359764
560 32 1 63.5790553089 51.8252082054 69.3922816773
561 32 2 66.0393972224 56.3277986615 72.0530308101
562 32 2 66.1372998138 56.153736924 73.0696760803
563 32 2 65.9520022772 55.869377914 74.0485809723
564 32 2 65.5073374034 55.4827273321 74.9007690317
565 32 2 64.8507786228 55.0111144818 75.5488137048
566 32 2 64.0491129291 54.4796127507 75.9338955616
567 32 2 63.1823534233 53.9187542375 76.0211635304
568 32 2 62.3364463333 53.3617468333 75.8029114791
569 32 2 61.5954372451 52.8414474108 75.2992806089
570 32 2 61.0338105722 52.3873670085 74.5564236377
571 32 2 60.7097005005 52.0229809779 73.6422981029
572 32 2 60.6595922123 51.7635892684 72.640472214
573 32 2 60.8949963598 51.6149218778 71.6425078332
574 32 2 61.4013998999 51.5726165778 70.7396148564
575 32 2 62.139588919 51.6226165201 70.0143376756
576 32 2 63.0492228766 51.7424514803 69.5330314772
577 33 1 46.8955150554 45.5491815914 75.0121992112
578 33 1 43.0889510104 49.5303960767 75.4340907317
579 33 2 47.2271835788 45.5890656516 74.5697211435
580 33 2 47.6439312247 45.685002823 73.6260223198
581 33 2 47.7663614482 45.8169887645 72.6057083667
582 33 2 47.5859527425 45.9919868837 71.6005823207
583 33 2 47.1217865598 46.213040143 70.7010628809
584 33 2 46.4188080879 46.4789937021 69.9879429866
585 33 2 45.5437296163 46.7846001781 69.5250257568
586 33 2 44.5789498899 47.1209979311 69.3533090062
587 33 2 43.6150436828 47.4765187781 69.4872484043
588 33 2 42.7425061503 47.8377515177 69.9134398794
589 33 2 42.0435044373 48.1907643245 70.5918413643
590 33 2 41.5843883625 48.5223745978 71.4594225234
591 33 2 41.4096428099 48.8213505211 72.4359097994
592 33 2 41.5378330503 49.0794348114 73.4311031337
593 33 2 41.9599125668 49.2920973486 74.3530974603
594 33 2 42.6400476203 49.4589480844 75.1166596071