LAMMPS input file for bananas

648 atoms

2 atom types

0 42.5063427673 xlo xhi
0 42.5063427673 ylo yhi
0 42.5063427673 zlo zhi

Masses

 1 1
 2 1

Atoms

1 1 1 18.4915979859 12.1142089876 3.52399023486
2 1 1 20.5957978584 12.5393008402 8.61414061327
3 1 2 18.2964291807 12.5876945402 3.31161755077
4 1 2 17.8172773524 13.486071339 3.11982947992
5 1 2 17.2391858294 14.3406409803 3.2145444749
6 1 2 16.6277249696 15.0862542048 3.59352540797
7 1 2 16.051506657 15.6676928391 4.22862507092
8 1 2 15.5759305113 16.044702785 5.06835171783
9 1 2 15.2572228881 16.195663073 6.04256240015
10 1 2 15.1373119961 16.1195565555 7.06885630891
11 1 2 15.2400062535 15.8360626174 8.06008538827
12 1 2 15.5688242139 15.3837634529 8.93229764787
13 1 2 16.1066738599 14.816627401 9.61238916238
14 1 2 16.8174104947 14.1990898764 10.0447672989
15 1 2 17.6491312344 13.6001802532 10.1964178367
16 1 2 18.5389058173 13.0872300221 10.0599141257
17 1 2 19.4185125293 12.719735705 9.65409400507
18 1 2 20.2206564302 12.5439359058 9.02234278508
19 2 1 27.9080345652 12.7246507824 2.59699432704
20 2 1 26.9714836264 16.1724509764 6.81048898378
21 2 2 28.2537692005 12.9182105744 2.2092008808
22 2 2 28.7590123498 13.4682213875 1.49110097358
23 2 2 29.052135708 14.225953591 0.848161928393
24 2 2 29.1193754559 15.1317150821 0.349639162027
25 2 2 28.9675564618 16.1123212843 0.0516249334451
26 2 2 28.6234702126 17.0877657255 -0.00806431569681
27 2 2 28.1314328417 17.9785124144 0.186665171368
28 2 2 27.549245832 18.7127453334 0.628717563603
29 2 2 26.9429275647 19.2329142768 1.2884542082
30 2 2 26.3806959208 19.500980398 2.11639511457
31 2 2 25.9267504035 19.5018833491 3.04772892323
32 2 2 25.6354205248 19.2449139907 4.008220288
33 2 2 25.546213816 18.7628675554 4.9209762294
34 2 2 25.6802148216 18.1090544499 5.71345472418
35 2 2 26.0381632997 17.3524411535 6.32407671691
36 2 2 26.6003867945 16.5713641084 6.70783888623
37 3 1 35.6732957234 6.34139781762 17.21366201
38 3 1 39.4238187649 3.32529182564 19.9256119767
39 3 2 35.7008194023 6.8872392871 17.3068345668
40 3 2 35.7517879257 7.84162281457 17.7068399459
41 3 2 35.8140664609 8.63673278369 18.368180654
42 3 2 35.9009574989 9.20294403719 19.2314910126
43 3 2 36.0235201669 9.49149492395 20.2189963489
44 3 2 36.1895622185 9.47893179314 21.2416019503
45 3 2 36.4029283774 9.16924673184 22.2070138086
46 3 2 36.6631499019 8.59351369694 23.0281509725
47 3 2 36.9654873084 7.80705620707 23.6310827435
48 3 2 37.3013623637 6.88440475167 23.9617672613
49 3 2 37.6591399671 5.91250353616 23.9909772752
50 3 2 38.0251886597 4.98278574995 23.7169641297
51 3 2 38.3851230944 4.18283967561 23.1656171501
52 3 2 38.7251152228 3.58842525102 22.3881038989
53 3 2 39.0331546841 3.25656875354 21.4562063903
54 3 2 39.3001435179 3.22036500721 20.4557783507
55 4 1 8.09828308574 39.5886705119 12.0683434824
56 4 1 5.4735320319 35.1283542542 14.0007647224
57 4 2 7.78323637558 39.934431784 11.7707257727
58 4 2 7.1349675241 40.3843240128 11.0993134629
59 4 2 6.44758294963 40.5432926402 10.3405767276
60 4 2 5.76710318978 40.3962041061 9.57326826889
61 4 2 5.13891942679 39.9558211428 8.87692207857
62 4 2 4.60365620252 39.2616394861 8.32460412725
63 4 2 4.19346860012 38.376287944 7.97625259653
64 4 2 3.92911139407 37.3798199489 7.87321467394
65 4 2 3.81804730802 36.3624169007 8.0344778673
66 4 2 3.85376680744 35.4161683736 8.45493934411
67 4 2 4.0163814263 34.6266783972 9.10587104111
68 4 2 4.27443654759 34.0652628784 9.93753815049
69 4 2 4.58777840761 33.7824493468 10.8837323146
70 4 2 4.91121400416 33.8033715053 11.867806341
71 4 2 5.19863031798 34.1254783607 12.8096603888
72 4 2 5.40719739112 34.7187667396 13.6330428556
73 5 1 28.0977679664 10.7078387931 5.73148076091
74 5 1 29.7621498005 14.5555837364 2.13388670056
75 5 2 28.5048415874 10.4036317823 5.9531353338
76 5 2 29.3306525022 9.80744653999 6.1430023955
77 5 2 30.1861834311 9.23429330293 6.02893133115
78 5 2 31.0072922272 8.74953461559 5.62366676184
79 5 2 31.7329742291 8.41047609557 4.96649481836
80 5 2 32.3109226726 8.26114317962 4.11966231536
81 5 2 32.7022963123 8.32826832277 3.16270312059
82 5 2 32.8852596977 8.61885440653 2.18518885538
83 5 2 32.856973416 9.1195364449 1.27856468082
84 5 2 32.6338528968 9.79779976717 0.527814315692
85 5 2 32.2500721897 10.6049436432 0.0037139976747
86 5 2 31.754449091 11.480520225 -0.243618581572
87 5 2 31.2059955323 12.3578442061 -0.189292370039
88 5 2 30.6685388 13.1700710094 0.164088291763
89 5 2 30.2049038496 13.8562894916 0.786661049487
90 5 2 29.8711869783 14.367073831 1.62402740873
91 6 1 38.0475476152 6.48208159256 40.6431790296
92 6 1 39.5222628672 11.7552635796 41.3758165379
93 6 2 37.8030436679 6.37320764558 40.1576423457
94 6 2 37.2104702114 6.35306651164 39.3079947455
95 6 2 36.4981123995 6.58151424745 38.5911907339
96 6 2 35.7408774721 7.04894434704 38.0605737553
97 6 2 35.0177630982 7.72396770071 37.7525168039
98 6 2 34.4046569493 8.5562736285 37.683107122
99 6 2 33.9674197415 9.48121556422 37.8466798913
100 6 2 33.7558822069 10.4257034171 38.2163345658
101 6 2 33.7993031555 11.3148655384 38.7463867845
102 6 2 34.1037026133 12.0788730717 39.376532379
103 6 2 34.6513131123 12.6593046669 40.0373439375
104 6 2 35.4021991485 13.0144714302 40.656598927
105 6 2 36.2978971958 13.1232167548 41.1658625852
106 6 2 37.2667445005 12.9868446895 41.5067255655
107 6 2 38.2304109493 12.6290010783 41.6361277928
108 6 2 39.1110386505 12.0935183044 41.5302832747
109 7 1 29.131717291 10.2645286373 35.517656274
110 7 1 29.4116145863 5.31375530923 37.9527111029
111 7 2 28.6177186842 10.4515140083 35.4269728066
112 7 2 27.6256613898 10.5885333672 35.1614581532
113 7 2 26.6646879232 10.4344030744 34.8061781785
114 7 2 25.8132533695 9.99730870676 34.409368746
115 7 2 25.1398286349 9.31122726028 34.0230510182
116 7 2 24.6966595062 8.43283023772 33.6982898671
117 7 2 24.5150045871 7.43631819258 33.480539447
118 7 2 24.6022861603 6.40665754699 33.4055001701
119 7 2 24.9414136658 5.43183612939 33.4958647095
120 7 2 25.4923414601 4.59484331917 33.7592496223
121 7 2 26.1957188695 3.96610578655 34.1875011211
122 7 2 26.9782998452 3.5970682898 34.75743827
123 7 2 27.7596191451 3.51550462304 35.4329658646
124 7 2 28.4593265256 3.72298610915 36.1683644135
125 7 2 29.0045104512 4.19473837787 36.9124573482
126 7 2 29.3363437865 4.88189948342 37.6132756297
127 8 1 11.7378405423 14.1187272154 25.3483352454
128 8 1 6.5451373124 12.7962208471 26.6917641169
129 8 2 11.8650604424 14.6550944719 25.4075539188
130 8 2 11.9063071937 15.6902468172 25.3931199785
131 8 2 11.6816215514 16.688636956 25.2313068022
132 8 2 11.2019569347 17.5637802754 24.9529257014
133 8 2 10.5015074144 18.2404257803 24.5994128426
134 8 2 9.63459101552 18.6614150214 24.2190524512
135 8 2 8.67069877388 18.7928919342 23.8625758333
136 8 2 7.68816081432 18.6273887291 23.578537353
137 8 2 6.76700676897 18.1845065606 23.4088888317
138 8 2 5.98167129028 17.5091289343 23.3851557519
139 8 2 5.39420953134 16.6673306956 23.5255637935
140 8 2 5.04864098456 15.7403554834 23.8333776118
141 8 2 4.96693722259 14.8172105906 24.2966032732
142 8 2 5.14701924817 13.9865541865 24.8890814699
143 8 2 5.56294698923 13.3286143618 25.5728718709
144 8 2 6.16728366708 12.9078765527 26.3017112818
145 9 1 34.73065602 18.7497954788 40.9848426428
146 9 1 35.0798498218 22.1072078762 36.6117617216
147 9 2 34.2354428071 18.7414781198 41.2339937684
148 9 2 33.3342638777 18.959895178 41.6961847863
149 9 2 32.5267727938 19.4648068574 42.1041950272
150 9 2 31.8746323705 20.2112557637 42.4058188157
151 9 2 31.4253456253 21.1322690299 42.5585473171
152 9 2 31.2079260051 22.1449627143 42.5334431043
153 9 2 31.2302528881 23.15809645 42.3177777268
154 9 2 31.4783533996 24.0803897606 41.9161918747
155 9 2 31.9176760019 24.8288420318 41.3502723927
156 9 2 32.4962397751 25.3362977951 40.6565846966
157 9 2 33.1493723385 25.5575677699 39.8833399332
158 9 2 33.8056045656 25.4735477452 39.0860006637
159 9 2 34.3931848037 25.0929598773 38.3222255988
160 9 2 34.8466188457 24.4515576891 37.6466141618
161 9 2 35.1126395513 23.6088672314 37.1057298971
162 9 2 35.1550620053 22.6427614429 36.7338563271
163 10 1 6.46616176157 24.6659491531 10.0208125028
164 10 1 3.84229020405 23.7461687578 14.7944162919
165 10 2 6.59176866198 25.196801709 9.92181725801
166 10 2 6.59973912041 26.2242252682 9.78844817226
167 10 2 6.31741026327 27.2202471426 9.7474499615
168 10 2 5.77542167734 28.1002605017 9.82007827318
169 10 2 5.02808023969 28.7902323812 10.0172320009
170 10 2 4.14841019096 29.2334515894 10.3384598796
171 10 2 3.22149717098 29.3956977813 10.7720016166
172 10 2 2.33673289019 29.2683605515 11.2958598117
173 10 2 1.57966731406 28.8692242493 11.8798049605
174 10 2 1.02421101246 28.2408469829 12.4881307936
175 10 2 0.725898408739 27.4466815619 13.0829088075
176 10 2 0.716825965472 26.565291943 13.6274453459
177 10 2 1.00272667767 25.6831923354 14.0896261289
178 10 2 1.56244752564 24.8869616618 14.4448433836
179 10 2 2.34987751613 24.2553521213 14.6782387768
180 10 2 3.2981505762 23.8521111364 14.7860577123
181 11 1 4.04844190127 27.9148501754 19.3968725424
182 11 1 6.56462368186 23.3322850768 21.1820664886
183 11 2 3.92637955241 28.2835511162 19.7925264154
184 11 2 3.60359527645 28.7858764825 20.6392433391
185 11 2 3.19703078407 29.0049108169 21.5667018476
186 11 2 2.75913825803 28.9193921912 22.5017883204
187 11 2 2.34522534764 28.5358178658 23.370693868
188 11 2 2.00841402433 27.8878520813 24.1056418156
189 11 2 1.79479865594 27.0332576531 24.6510653657
190 11 2 1.7392446283 26.0486310454 24.9686723627
191 11 2 1.86221045848 25.0224208078 25.0409355213
192 11 2 2.16788305566 24.0468657268 24.8726899911
193 11 2 2.64379609555 23.2095875067 24.4906926459
194 11 2 3.26196629249 22.5856042854 23.9411832663
195 11 2 3.9814440012 22.2304929319 23.2856699068
196 11 2 4.75204566747 22.175323363 22.5953226016
197 11 2 5.518927925 22.4238266036 21.9444864059
198 11 2 6.22758642164 22.9520547135 21.4039050427
199 12 1 4.02224332995 30.6629674896 16.1572277671
200 12 1 0.102724704799 34.348127276 14.9022528043
201 12 2 4.54184426411 30.836136105 16.0711517083
202 12 2 5.42963853166 31.2185335176 15.6982662453
203 12 2 6.13746527316 31.6619135372 15.085203872
204 12 2 6.59974492415 32.1442518683 14.293309138
205 12 2 6.77327888117 32.6399732696 13.4002266843
206 12 2 6.64118693903 33.1222826686 12.4928241421
207 12 2 6.21444587639 33.5656074611 11.6592743805
208 12 2 5.53088895169 33.9479283853 10.981018785
209 12 2 4.6517575028 34.2527865193 10.525344093
210 12 2 3.65611896276 34.4707834672 10.3392493874
211 12 2 2.63366007455 34.6004379982 10.4451622558
212 12 2 1.67651218421 34.6483210567 10.8388945759
213 12 2 0.870853714894 34.6284568381 11.4900242518
214 12 2 0.289055233908 34.5610445213 12.3446681064
215 12 2 -0.0169169310408 34.470617167 13.3303931893
216 12 2 -0.0202372837367 34.3838055952 14.3628188464
217 13 1 41.1195048561 28.7844166247 24.0397212592
218 13 1 37.9772112032 24.288722604 24.6975334915
219 13 2 41.0184363954 29.1946234478 24.3987437049
220 13 2 40.6062311343 29.9277353898 25.0037922272
221 13 2 39.9349108727 30.5504269932 25.4885955736
222 13 2 39.062296245 30.9961934433 25.8251754224
223 13 2 38.0645553288 31.2146561804 25.9990636274
224 13 2 37.0292611286 31.1761547705 26.010620951
225 13 2 36.0474095304 30.8744503751 25.8750041816
226 13 2 35.2051252699 30.3272944042 25.6207846327
227 13 2 34.5758118928 29.5748105228 25.2873439442
228 13 2 34.2134612181 28.6758374862 24.9212845511
229 13 2 34.1477321281 27.7025661447 24.5721819963
230 13 2 34.3812472404 26.7339594406 24.288066252
231 13 2 34.8893538634 25.8485551467 24.1110439164
232 13 2 35.622371023 25.1173073587 24.0734603097
233 13 2 36.5101177511 24.5971192189 24.1949512849
234 13 2 37.4683098929 24.3256563464 24.4806534716
235 14 1 33.5610285826 14.980992292 33.0952856847
236 14 1 37.8721177312 17.1504726327 35.7833810077
237 14 2 33.1099243238 15.3028905574 33.0789136813
238 14 2 32.3021810364 15.9196592916 33.2804009549
239 14 2 31.6114777848 16.5213504483 33.7644947281
240 14 2 31.1085057336 17.0705610826 34.4847980019
241 14 2 30.8468448506 17.5346717089 35.3733839122
242 14 2 30.8580802353 17.88881948 36.3469870826
243 14 2 31.1489232218 18.118164369 37.3145930408
244 14 2 31.7005996588 18.2192417979 38.1857339441
245 14 2 32.4705611229 18.2002784253 38.8787344819
246 14 2 33.3963630942 18.0804423076 39.3281563617
247 14 2 34.4013566068 17.8880957825 39.4907628347
248 14 2 35.4016745977 17.6582103176 39.3494596098
249 14 2 36.313876165 17.4291789544 38.9148529527
250 14 2 37.0625519835 17.2393168854 38.2242829528
251 14 2 37.5871976627 17.1233691264 37.3384200742
252 14 2 37.8477285608 17.1093436018 36.335735205
253 15 1 34.4179235869 14.9808988532 11.8054240919
254 15 1 29.2594702414 13.2004737318 10.9461007933
255 15 2 34.5815976556 14.9758058623 12.3351093274
256 15 2 34.6851560304 15.0809038465 13.3606238753
257 15 2 34.5114566366 15.3124084962 14.3554525685
258 15 2 34.0682364197 15.6330228031 15.2353459239
259 15 2 33.3877984278 15.9973276516 15.9265305069
260 15 2 32.5240674751 16.3559216498 16.3724331833
261 15 2 31.5476750392 16.659923935 16.5388376092
262 15 2 30.539521391 16.8654295329 16.4170029591
263 15 2 29.5834017508 16.937511179 16.0244606289
264 15 2 28.7583685782 16.8534028456 15.4034162959
265 15 2 28.1315261517 16.6045748039 14.6169029843
266 15 2 27.751914193 16.1975110865 13.7430357736
267 15 2 27.6460380273 15.6531184847 12.8678918175
268 15 2 27.8154526942 15.0048209508 12.0776646418
269 15 2 28.2366212095 14.2955130938 11.4508078344
270 15 2 28.8630598985 13.5736504505 11.0508842113
271 16 1 31.608570618 24.4824068295 19.850866504
272 16 1 30.4527454738 23.2848482224 25.118495257
273 16 2 31.4519792781 24.0973507746 19.4839978969
274 16 2 31.2728839249 23.2316641213 18.9436632932
275 16 2 31.2411168038 22.2412634685 18.641095271
276 16 2 31.3427970573 21.2106233875 18.6112262104
277 16 2 31.5518804564 20.2278861663 18.8641327098
278 16 2 31.8325332624 19.376827875 19.3841171311
279 16 2 32.1423983764 18.7292224012 20.1311383976
280 16 2 32.4364560759 18.338299452 21.0444616309
281 16 2 32.6711274418 18.2338928086 22.0481939727
282 16 2 32.8082464606 18.4197210565 23.0582020163
283 16 2 32.8185387546 18.8730486467 23.9897803414
284 16 2 32.684289863 19.54675818 24.7653721871
285 16 2 32.4009598679 20.3736450322 25.3216385429
286 16 2 31.9775971952 21.2725428759 25.6152313308
287 16 2 31.4360138754 22.1557217743 25.6267444662
288 16 2 30.8087974348 22.9368845305 25.3624826711
289 17 1 19.4766353356 27.4522568741 21.3639731338
290 17 1 20.4488670639 22.8567123932 24.2715025752
291 17 2 18.9692337045 27.485957206 21.1430897701
292 17 2 18.0704580628 27.3331089526 20.6508603841
293 17 2 17.2987420372 26.906445491 20.1069277801
294 17 2 16.7136021069 26.2372070632 19.5747800564
295 17 2 16.3575488385 25.3787439708 19.1168311507
296 17 2 16.2522121619 24.4016538379 18.7887319769
297 17 2 16.3963698595 23.3873468262 18.6342979928
298 17 2 16.7660589684 22.4206253165 18.6815155385
299 17 2 17.3167599406 21.5819543983 18.9399909559
300 17 2 17.9874544803 20.9401276919 19.4000749968
301 17 2 18.7061871987 20.5459969938 20.0337423254
302 17 2 19.3966241556 20.4278372714 20.7971459537
303 17 2 19.9850104938 20.5887694753 21.6346137764
304 17 2 20.4068929972 21.0064760728 22.4837229348
305 17 2 20.612994829 21.6352352318 23.2809894938
306 17 2 20.5737069843 22.410088243 23.9676548325
307 18 1 14.4251821176 25.3172412556 5.87797242879
308 18 1 18.9136618787 27.7351417026 3.75069766413
309 18 2 13.9843748498 25.3061646382 5.541895281
310 18 2 13.2061312731 25.5150877947 4.89063645292
311 18 2 12.5562322425 26.0019657596 4.24718396166
312 18 2 12.1021034956 26.7191188252 3.65312287655
313 18 2 11.8933268318 27.5978783239 3.14553637222
314 18 2 11.9571208638 28.5548455933 2.75362569641
315 18 2 12.2958601141 29.4994935422 2.49604855427
316 18 2 12.8868585833 30.3424179522 2.37921850837
317 18 2 13.6844375184 31.0034864337 2.39672039968
318 18 2 14.6240889091 31.419142279 2.52989507211
319 18 2 15.6283552206 31.5481974861 2.74954010473
320 18 2 16.6138894406 31.3755869353 3.0185715344
321 18 2 17.4990519369 30.9137415343 3.29540395991
322 18 2 18.2113516919 30.2014551745 3.53774094009
323 18 2 18.6940536644 29.3003487713 3.70643020144
324 18 2 18.9113500379 28.2892536822 3.76903226318
325 19 1 30.4231124589 15.3257678359 2.21779394484
326 19 1 33.8310817167 13.8847419146 6.31988864063
327 19 2 30.3757942983 15.8718273268 2.13435766892
328 19 2 30.2477380555 16.8971518169 2.21026089638
329 19 2 30.0938030641 17.8515348459 2.58296327554
330 19 2 29.9460316998 18.6539643876 3.22149320096
331 19 2 29.83590454 19.2372785698 4.07064959687
332 19 2 29.7914709939 19.5542872998 5.05603334764
333 19 2 29.8347926731 19.582073515 6.09082857837
334 19 2 29.9799325349 19.324082012 7.08371568982
335 19 2 30.2316730816 18.8098054628 7.94719489581
336 19 2 30.585080448 18.092096236 8.60556159488
337 19 2 31.0259541098 17.2423490455 9.00180664233
338 19 2 31.5321212238 16.3439935122 9.10281258145
339 19 2 32.0754576231 15.4848897779 8.90237221112
340 19 2 32.6244512599 14.7493202877 8.42175435564
341 19 2 33.1470744442 14.2103076704 7.70776526825
342 19 2 33.6137030822 13.9229589215 6.8284823662
343 20 1 35.1034989622 11.39393319 19.4447498997
344 20 1 32.0730574459 8.24550294124 22.8243655948
345 20 2 35.1372510593 11.9277802613 19.5905226282
346 20 2 34.966082964 12.9087267275 19.8766965699
347 20 2 34.5061442403 13.7882694776 20.1738681235
348 20 2 33.8005249686 14.4849901417 20.4740876612
349 20 2 32.9147083549 14.9341340943 20.7691277398
350 20 2 31.9306021111 15.0935126653 21.0512330096
351 20 2 30.9390727864 14.947348525 21.3138270944
352 20 2 30.0316635236 14.5077137448 21.5521120102
353 20 2 29.2922501471 13.8134294608 21.7635054889
354 20 2 28.7893961051 12.9265274307 21.947876345
355 20 2 28.5701030947 11.9265960048 22.1075564328
356 20 2 28.6555269829 10.9035258611 22.2471281041
357 20 2 29.0390495058 9.94931670938 22.3730065392
358 20 2 29.6868815058 9.14969176442 22.4928550202
359 20 2 30.5411427227 8.57628430357 22.6148864435
360 20 2 31.5251374251 8.28010848516 22.747114736
361 21 1 20.7160017339 8.93252022314 6.00756635173
362 21 1 19.5503708108 4.15198845276 3.49642883963
363 21 2 21.2258181078 9.12832829185 5.91202550613
364 21 2 22.2444461144 9.2768598521 5.79461438656
365 21 2 23.2688126862 9.12802339444 5.75022016752
366 21 2 24.2080474894 8.69088776282 5.76437767995
367 21 2 24.9790397235 8.00079950037 5.81728492095
368 21 2 25.5140134484 7.11616110642 5.88560795342
369 21 2 25.7667051804 6.11310780479 5.9446077321
370 21 2 25.7165806848 5.07856802167 5.97039500136
371 21 2 25.3707066168 4.10234009186 5.94210773706
372 21 2 24.7631064147 3.26890738057 5.84381266425
373 21 2 23.9516591543 2.64973785055 5.66595753261
374 21 2 23.012824026 2.29676994819 5.40624177856
375 21 2 22.0346712838 2.23767855307 5.06982621543
376 21 2 21.1088548771 2.47335248656 4.66886263917
377 21 2 20.3222584385 2.97781349818 4.22138622458
378 21 2 19.7490760721 3.70058411367 3.74967166738
379 22 1 17.0130237231 23.1321794166 18.4616305916
380 22 1 17.9798170521 20.3824634544 23.1544297401
381 22 2 17.1044608718 23.6783780397 18.48785844
382 22 2 17.1403117691 24.6853586981 18.7290112501
383 22 2 17.0115445228 25.594402988 19.2091232021
384 22 2 16.745548759 26.3234573395 19.8955458252
385 22 2 16.3822221163 26.8068737843 20.7368259823
386 22 2 15.9703336831 27.0013935931 21.6673956862
387 22 2 15.5630788248 26.8900901926 22.6135484458
388 22 2 15.2132305691 26.4839119778 23.5001574166
389 22 2 14.9683294853 25.8206843947 24.2575230108
390 22 2 14.8663504882 24.9616622523 24.8277258293
391 22 2 14.9322415269 23.9859465103 25.1699058596
392 22 2 15.1756496449 22.9832744383 25.2639867569
393 22 2 15.5900416787 22.0458403031 25.1125057494
394 22 2 16.1532997377 21.259892108 24.7403823764
395 22 2 16.8297371912 20.6978703178 24.1926471392
396 22 2 17.573351409 20.4118051039 23.5303370911
397 23 1 20.5975857868 11.4226737036 9.34693033053
398 23 1 17.7654463781 6.96475668465 7.72706821203
399 23 2 20.5897298706 11.8468314037 8.9899847912
400 23 2 20.6378531573 12.4747052582 8.16724024803
401 23 2 20.7482670187 12.8380632803 7.20327461683
402 23 2 20.892861663 12.9030346177 6.1793990749
403 23 2 21.0404118112 12.6629455666 5.18238542781
404 23 2 21.1594227981 12.1389278626 4.29655709117
405 23 2 21.2210012269 11.3779925788 3.59610323673
406 23 2 21.2014885248 10.4487451927 3.13831664768
407 23 2 21.0846173588 9.43513238006 2.95837163451
408 23 2 20.8629943599 8.42879049966 3.06611799071
409 23 2 20.5387740085 7.52069318431 3.44518321037
410 23 2 20.1234622595 6.7928593373 4.05446479836
411 23 2 19.6368678052 6.31087732858 4.83187665288
412 23 2 19.1052965661 6.11792679012 5.7000080477
413 23 2 18.5591539763 6.23084290792 6.57317941298
414 23 2 18.0301736097 6.63858193976 7.36525179903
415 24 1 16.9570634906 9.77761749747 9.40485214133
416 24 1 11.7712342019 8.20513604568 8.33132164182
417 24 2 17.0033561088 10.2161575486 9.74088964684
418 24 2 16.9354076865 11.1322679271 10.2200292898
419 24 2 16.660834336 12.0972889383 10.4784745149
420 24 2 16.1904845352 13.0200592468 10.5052333214
421 24 2 15.5530512621 13.8132685561 10.3104313061
422 24 2 14.7924567065 14.4014157083 9.92438874281
423 24 2 13.9638488803 14.7276904131 9.39485696997
424 24 2 13.1285750227 14.7591513537 8.78266598402
425 24 2 12.3485899643 14.4897287003 8.15617994772
426 24 2 11.6808091092 13.9407773582 7.58506597949
427 24 2 11.1719207483 13.1591305256 7.13394418172
428 24 2 10.8541305464 12.2128309728 6.8564976912
429 24 2 10.7422260818 11.1849291254 6.79057960462
430 24 2 10.8322289981 10.1659132401 6.95476277004
431 24 2 11.1017576209 9.24546164196 7.34664692141
432 24 2 11.5120669873 8.50426878453 7.94307745639
433 25 1 38.1857328769 5.27532004044 35.7635949012
434 25 1 32.7154684377 5.59229433327 35.0609389941
435 25 2 38.482756766 5.61413328165 35.4405407495
436 25 2 38.9066658246 6.15465472284 34.664919906
437 25 2 39.1173817946 6.5450772482 33.7286405445
438 25 2 39.0847442633 6.765597934 32.716832544
439 25 2 38.8007738393 6.81189995509 31.7215100172
440 25 2 38.2803994523 6.69554605197 30.83318447
441 25 2 37.5600976218 6.44292461786 30.1326149194
442 25 2 36.6945677192 6.09284446724 29.6834469254
443 25 2 35.7517462664 5.69299751612 29.5264114677
444 25 2 34.8066147036 5.29561179136 29.6756124264
445 25 2 33.9343650316 4.95269098559 30.1172410507
446 25 2 33.2035462613 4.71127445968 30.8108345895
447 25 2 32.6698163551 4.60914973066 31.6929643635
448 25 2 32.3708691521 4.6714082406 32.6830171191
449 25 2 32.3229986757 4.90815833866 33.6905427117
450 25 2 32.5196139766 5.31360393214 34.6234983942
451 26 1 42.8167688162 6.74881428455 11.6879993747
452 26 1 38.0674232979 3.97655507456 12.2136295505
453 26 2 42.8030762257 7.27227969335 11.8701478493
454 26 2 42.5845877491 8.26379695034 12.0765608475
455 26 2 42.1244018082 9.19159615937 12.1060148586
456 26 2 41.4534298446 9.96950681459 11.9714724947
457 26 2 40.6217958821 10.5250203512 11.7008441994
458 26 2 39.6942678566 10.8058991074 11.3344442849
459 26 2 38.7443541913 10.7849376476 10.9213163908
460 26 2 37.8476037008 10.462442465 10.5147632871
461 26 2 37.0747195183 9.86620404586 10.1674884691
462 26 2 36.4851146942 9.04896384076 9.92679237483
463 26 2 36.1214968552 8.08360702238 9.83026107665
464 26 2 36.0059755183 7.0565191968 9.90234041095
465 26 2 36.1380468674 6.05971258643 10.1521078056
466 26 2 36.4946396749 5.18243936185 10.5724448969
467 26 2 37.0322181823 4.503056545 11.1406863488
468 26 2 37.6907502683 4.08188397608 11.8206857385
469 27 1 21.9703631584 3.77541219018 8.24236717727
470 27 1 27.0240313202 2.05552592552 6.82095224551
471 27 2 21.9380758744 4.30885058034 8.38995648328
472 27 2 22.058295739 5.25010984549 8.80592305779
473 27 2 22.413084593 6.05070053084 9.35966436453
474 27 2 22.9822960288 6.6458638082 9.98833679577
475 27 2 23.7262395936 6.98956500853 10.6222669721
476 27 2 24.5892984681 7.05868955903 11.1913022846
477 27 2 25.5049987908 6.85514981466 11.6312051178
478 27 2 26.402068573 6.40571075208 11.8895079366
479 27 2 27.2109339497 5.75955041357 11.9302955617
480 27 2 27.8700606522 4.98377745992 11.7374787427
481 27 2 28.3315626912 4.15731439539 11.3162606494
482 27 2 28.5655670377 3.36370399232 10.6926626177
483 27 2 28.5629364691 2.68349459081 9.91115237376
484 27 2 28.3361024028 2.18689833274 9.03059091989
485 27 2 27.917931806 1.92739151272 8.11886751145
486 27 2 27.3587314591 1.93684035677 7.24671173264
487 28 1 27.6477967574 24.4733508859 38.5345805742
488 28 1 24.8584703791 20.8354783949 41.6173606759
489 28 2 27.5845220674 25.0034209726 38.6842589122
490 28 2 27.2372437993 25.9408516474 38.956419794
491 28 2 26.6207916497 26.7330299955 39.2131107038
492 28 2 25.7909946339 27.3063755995 39.4500953915
493 28 2 24.8231275818 27.6072540618 39.6649337764
494 28 2 23.805050038 27.6068656365 39.857204354
495 28 2 22.8291980991 27.3038702492 40.0285426154
496 28 2 21.9841591108 26.7245096416 40.1824919762
497 28 2 21.3465971679 25.9202155061 40.3241808037
498 28 2 20.9742653871 24.9629216254 40.4598549803
499 28 2 20.9007418648 23.9385072998 40.5963086075
500 28 2 21.1323691231 22.9389696789 40.7402647422
501 28 2 21.6476760062 22.054038467 40.8977626076
502 28 2 22.3993347186 21.3629973006 41.0736071344
503 28 2 23.3184746274 20.9274572569 41.2709310042
504 28 2 24.3209596361 20.7857411684 41.4909091139
505 29 1 6.96115056605 19.5297016802 34.4519380308
506 29 1 4.09971583252 16.3806785218 37.9752653608
507 29 2 6.88445524379 20.0755746683 34.511285284
508 29 2 6.51335704 21.0373683678 34.6146729712
509 29 2 5.87598838191 21.8478727379 34.7161316868
510 29 2 5.02932482901 22.4349381637 34.8255164447
511 29 2 4.04941861106 22.7467808928 34.9519598212
512 29 2 3.02446667061 22.7567029863 35.1030395452
513 29 2 2.04677174741 22.4655257641 35.2840878083
514 29 2 1.20432923042 21.9015149438 35.4977052499
515 29 2 0.572806613237 21.1178042965 35.7435239157
516 29 2 0.20864660436 20.1875526452 36.0182407961
517 29 2 0.143922525122 19.1972756338 36.3159188864
518 29 2 0.383414912198 18.2389600572 36.6285283288
519 29 2 0.904175784455 17.4016795112 36.9466783129
520 29 2 1.6576202901 16.7634755719 37.2604730227
521 29 2 2.57395508607 16.3842445147 37.5604136137
522 29 2 3.56853981469 16.3002779291 37.8382640074
523 30 1 42.1949649326 28.6930340108 34.9705985906
524 30 1 38.9151788043 25.4422377324 38.0026470022
525 30 2 42.1826242078 29.2301401349 35.1075157411
526 30 2 41.926649704 30.205036929 35.3473142091
527 30 2 41.3883894446 31.0635933073 35.563200405
528 30 2 40.6156474741 31.7266676294 35.7546483135
529 30 2 39.6776002186 32.132935922 35.9233594037
530 30 2 38.6584912387 32.244481395 36.073107545
531 30 2 37.6499526549 32.0502504555 36.209395029
532 30 2 36.7426531241 31.5670602135 36.3389510502
533 30 2 36.0180336342 30.838065647 36.4691183577
534 30 2 35.5408843756 29.9288261411 36.6071839838
535 30 2 35.3534392885 28.9213299255 36.7597150501
536 30 2 35.4715265524 27.9065210665 36.9319601919
537 30 2 35.8831258893 26.976010158 37.1273711592
538 30 2 36.5494641805 26.2137242611 37.347288199
539 30 2 37.4085495323 25.688257177 37.5908178953
540 30 2 38.3808216717 25.4466173048 37.8549146015
541 31 1 21.5409098958 15.3322481138 25.4715000268
542 31 1 16.1508028124 15.6211371155 24.2962214065
543 31 2 21.7679695299 15.8073875092 25.6449014847
544 31 2 22.0887953748 16.7836343317 25.7770488649
545 31 2 22.2379286574 17.8021164874 25.659136297
546 31 2 22.1877219411 18.7772962683 25.3127929821
547 31 2 21.9286970975 19.6275828619 24.7804689734
548 31 2 21.4704092123 20.2827691362 24.1215659673
549 31 2 20.8405756648 20.6904308316 23.4070229974
550 31 2 20.082549763 20.8207048923 22.7128505314
551 31 2 19.2513692055 20.6690114041 22.1132023199
552 31 2 18.4087395419 20.2564710413 21.6736164805
553 31 2 17.6174098774 19.6279799735 21.4450418731
554 31 2 16.9354534596 18.8481177 21.4591942481
555 31 2 16.4109744567 17.9952608009 21.7256654402
556 31 2 16.0777233914 17.1544391211 22.2310490979
557 31 2 15.9520208713 16.4095855278 22.9401626376
558 31 2 16.0312700087 15.8358856533 23.799254041
559 32 1 19.727262003 12.3094206571 11.2609811192
560 32 1 15.6286239054 9.72869270297 8.60410324603
561 32 2 19.9542964446 12.0210556007 11.6765320121
562 32 2 20.1548938441 11.4545658777 12.5205107372
563 32 2 20.0495832014 10.8827432505 13.378052901
564 32 2 19.647956377 10.3398808664 14.1638304375
565 32 2 18.9866136591 9.85763222364 14.7990564346
566 32 2 18.1258277458 9.46212604028 15.2186663504
567 32 2 17.144050049 9.17158469087 15.3772484729
568 32 2 16.1307600585 8.99466328593 15.2531830753
569 32 2 15.1783095255 8.92966078171 14.8506129973
570 32 2 14.3735048471 8.9646750258 14.1990660354
571 32 2 13.7896948954 9.07868760651 13.3507635641
572 32 2 13.4800854639 9.2434796249 12.3758606962
573 32 2 13.4728897015 9.42620377202 11.3560518326
574 32 2 13.7687565596 9.59237827329 10.3771244356
575 32 2 14.3407116415 9.70902981015 9.52113973108
576 32 2 15.136615847 9.74769894986 8.85895304705
577 33 1 7.93553286205 27.6709634593 23.9934619358
578 33 1 4.18642262263 24.7890530478 26.8494654116
579 33 2 7.97286982355 28.206691817 24.1312395321
580 33 2 7.80907594408 29.203592308 24.3610459449
581 33 2 7.35387747692 30.1143814483 24.5526379816
582 33 2 6.64647393875 30.8553350416 24.7076154575
583 33 2 5.74905266435 31.3582089473 24.8309155076
584 33 2 4.74112059731 31.5764593524 24.9303625793
585 33 2 3.7122574446 31.4894851151 25.0159552555
586 33 2 2.7539507257 31.1045055039 25.0989549101
587 33 2 1.95125692972 30.4559021807 25.1908592638
588 33 2 1.37504884379 29.6020854042 25.302354398
589 33 2 1.07555568788 28.6201700907 25.4423407469
590 33 2 1.07778485569 27.5989469959 25.6171218463
591 33 2 1.37924255757 26.6307896748 25.8298297839
592 33 2 1.95016112273 25.8032348787 26.0801397171
593 33 2 2.73621224291 25.1910038148 26.3642994821