LAMMPS input file for bananas

4320 atoms

2 atom types

0 126.992084157 xlo xhi
0 126.992084157 ylo yhi
0 126.992084157 zlo zhi

Masses

 1 1
 2 1

Atoms

1 1 1 30.3488566213 124.854639399 100.997455468
2 1 1 33.8950561619 120.66170711 101.59893589
3 1 2 29.9863497379 124.796215286 100.582055696
4 1 2 29.5017611896 124.639157662 99.6798601221
5 1 2 29.3025561518 124.416845805 98.6877185989
6 1 2 29.4028920157 124.13077352 97.6969888811
7 1 2 29.7896238197 123.788246209 96.7989000415
8 1 2 30.4235023781 123.401714995 96.0762371845
9 1 2 31.2427517387 122.98764184 95.595795805
10 1 2 32.1686998964 122.564999083 95.4022935577
11 1 2 33.1129495359 122.153540155 95.5142943622
12 1 2 33.9854352106 121.771999114 95.9225163516
13 1 2 34.7026325676 121.436383081 96.5906778897
14 1 2 35.1951713691 121.158513237 97.4588045451
15 1 2 35.4141584041 120.94494735 98.4486956006
16 1 2 35.3356339741 120.796382056 99.4710518391
17 1 2 34.9627557554 120.707589359 100.433614929
18 1 2 34.3255109853 120.667893152 101.249576525
19 2 1 64.4952289012 112.006032094 76.9408462798
20 2 1 63.5049441397 114.715121807 81.652338621
21 2 2 64.9807679962 112.124543545 76.7008704239
22 2 2 65.8175882887 112.568559793 76.281309486
23 2 2 66.5056085006 113.266740845 75.9457183382
24 2 2 66.993681111 114.157182604 75.7399305564
25 2 2 67.2488832883 115.160456926 75.6979484862
26 2 2 67.2595177187 116.18685128 75.8388440207
27 2 2 67.0361787847 117.144545803 76.165020248
28 2 2 66.6107869157 117.947982442 76.6619924163
29 2 2 66.033679126 118.525663335 77.2997081803
30 2 2 65.3690209306 118.826667655 78.035286792
31 2 2 64.6889578301 118.825292903 78.8169275666
32 2 2 64.0670394407 118.523397625 79.5886313761
33 2 2 63.571515644 117.950232011 80.2953048203
34 2 2 63.2591157921 117.159771815 80.8877818431
35 2 2 63.1698779788 116.225798613 81.327305087
36 2 2 63.323499675 115.235174808 81.5890585225
37 3 1 4.59719731239 70.1698903814 32.5707291471
38 3 1 5.06972481247 72.8227787728 27.7481891518
39 3 2 4.48225872506 70.4942112197 33.0054551563
40 3 2 4.44882033518 71.2267020054 33.7374313403
41 3 2 4.64274586985 72.074881799 34.2999559495
42 3 2 5.03415875092 72.9741214218 34.6340428673
43 3 2 5.5751819564 73.8551377279 34.7015274622
44 3 2 6.20430188315 74.6503085785 34.488545192
45 3 2 6.85197514731 75.2998364181 34.0067953196
46 3 2 7.44696727793 75.7571986628 33.2924745564
47 3 2 7.92284554857 75.9933881089 32.4029778288
48 3 2 8.22403414277 75.999556862 31.4116668845
49 3 2 8.31087974114 75.7878227993 30.4011835645
50 3 2 8.16326581553 75.3901650572 29.455917221
51 3 2 7.78244619669 74.8555092185 28.6543128527
52 3 2 7.19093079103 74.2452678763 28.0617210536
53 3 2 6.4304338628 73.6277430405 27.7244414804
54 3 2 5.55807189035 73.0719005918 27.665502763
55 4 1 19.5195547006 76.4488968984 34.4774104195
56 4 1 19.7741876717 78.378943195 39.647330574
57 4 2 19.4567257986 76.8366462457 34.0861501981
58 4 2 19.1632029952 77.6338252918 33.4930229407
59 4 2 18.6743998337 78.4730018936 33.1320463328
60 4 2 18.0459411847 79.2918654195 33.0428708668
61 4 2 17.3461811435 80.0299567206 33.2403730876
62 4 2 16.6499727365 80.6341788202 33.7132996353
63 4 2 16.0318452683 81.063636562 34.4252929585
64 4 2 15.5592111744 81.2933640932 35.3182052083
65 4 2 15.2862215583 81.3166004363 36.3173982592
66 4 2 15.2488304628 81.1454057336 37.3385467748
67 4 2 15.4615177555 80.8095619974 38.2953242367
68 4 2 15.9159693271 80.3538585595 39.1072713759
69 4 2 16.5818349004 79.834009643 39.7071298205
70 4 2 17.4094943772 79.3115761602 40.046972516
71 4 2 18.3345805774 78.8483545995 40.1025721485
72 4 2 19.2838461353 78.5007444408 39.8756093997
73 5 1 64.9693046238 29.734530437 61.7357238043
74 5 1 69.3937959961 31.4483945912 58.9064947893
75 5 2 64.483341323 29.8173800698 61.482036602
76 5 2 63.656550057 30.1914045887 60.9820647298
77 5 2 63.0052914534 30.8162318989 60.473239539
78 5 2 62.5933900092 31.6311402767 59.9836360799
79 5 2 62.4628534558 32.5580826173 59.5395773938
80 5 2 62.6300438673 33.5088002192 59.1632352371
81 5 2 63.0841863003 34.3928673297 58.870609186
82 5 2 63.7883509017 35.1259332103 58.6700683171
83 5 2 64.6828189661 35.6374104807 58.561588389
84 5 2 65.690526136 35.8769089704 58.5367540514
85 5 2 66.7240866121 35.8188286479 58.5795258823
86 5 2 67.6937581354 35.4646929948 58.6677023377
87 5 2 68.5156217541 34.8430101449 58.7749433638
88 5 2 69.1192308119 34.0066744442 58.873171222
89 5 2 69.4540319724 33.0281452718 58.9351296998
90 5 2 69.4939730205 31.9928425622 58.9368684419
91 6 1 126.092329262 45.831221258 4.64539138896
92 6 1 124.278572059 41.3968192671 7.39572861421
93 6 2 125.91027378 46.3173916347 4.84000833147
94 6 2 125.359536761 47.1217293144 5.19097790882
95 6 2 124.580502577 47.7239496911 5.5132919936
96 6 2 123.644482774 48.0661284098 5.79654217428
97 6 2 122.637097719 48.1140432175 6.03388060982
98 6 2 121.650472529 47.8602932301 6.22264419201
99 6 2 120.774840117 47.3249735033 6.36459728071
100 6 2 120.090316698 46.5538434223 6.46577088714
101 6 2 119.659599416 45.6141558553 6.53591296334
102 6 2 119.522251663 44.5885272353 6.58759990238
103 6 2 119.691096982 43.5674072923 6.63509023377
104 6 2 120.151050235 42.6408348026 6.69302499658
105 6 2 120.860492577 41.8902307947 6.77509324787
106 6 2 121.755064897 41.3809772403 6.89278434175
107 6 2 122.753533981 41.1564576625 7.05434070541
108 6 2 123.765196704 41.2341028434 7.26400656397
109 7 1 121.16329586 83.0274396558 102.113830869
110 7 1 119.429653389 83.073688666 96.8688012343
111 7 2 121.134961639 82.5339233213 102.364869487
112 7 2 120.861250742 81.6130141353 102.752759455
113 7 2 120.32778602 80.7577404861 102.992284792
114 7 2 119.588295404 80.034163052 103.047414969
115 7 2 118.715285533 79.4963387537 102.898926587
116 7 2 117.793432969 79.1813936099 102.54615553
117 7 2 116.911866157 79.1061388 102.007057506
118 7 2 116.156041601 79.2655383702 101.316571424
119 7 2 115.599954736 79.633168247 100.523434813
120 7 2 115.29939544 80.1636247212 99.6857415221
121 7 2 115.286862935 80.7966628743 98.8656466226
122 7 2 115.568603573 81.4626877419 98.1237011396
123 7 2 116.124041494 82.0890977089 97.5133329878
124 7 2 116.907654062 82.6069019524 97.07597716
125 7 2 117.853121132 82.957008771 96.8372990378
126 7 2 118.879369954 83.0956116353 96.804855061
127 8 1 39.0018891631 6.2144930999 112.766793159
128 8 1 42.4660308259 9.96530735868 110.657502757
129 8 2 39.1083653515 6.06657386807 113.290400178
130 8 2 39.525633169 5.75827035606 114.187220407
131 8 2 40.1967838641 5.44751715282 114.912781709
132 8 2 41.0660379973 5.17936793321 115.408708376
133 8 2 42.0595595302 4.99499313285 115.637555285
134 8 2 43.092185783 4.92792737294 115.586220919
135 8 2 44.0751897851 5.0010128692 115.267141535
136 8 2 44.9243675017 5.22431742495 114.717157634
137 8 2 45.5677128061 5.59421677771 113.994156043
138 8 2 45.9519806456 6.0937249411 113.171793694
139 8 2 46.0475401864 6.69404243202 112.332783983
140 8 2 45.8510755841 7.35718126665 111.56135767
141 8 2 45.3858882147 8.03942746358 110.935585467
142 8 2 44.699772816 8.69532545638 110.520262107
143 8 2 43.8606611253 9.28182124703 110.361000469
144 8 2 42.9504300829 9.76218666273 110.480074094
145 9 1 53.688654664 115.342607438 95.8445583539
146 9 1 51.0953193107 118.078781395 99.8826216126
147 9 2 54.0851139849 115.630185955 95.5847503641
148 9 2 54.6579294808 116.331152563 95.0807878327
149 9 2 54.9736496933 117.196022234 94.6056339514
150 9 2 55.0113700328 118.155758366 94.2171320292
151 9 2 54.7755248548 119.132677534 93.965227281
152 9 2 54.2954832809 120.047530125 93.8874144542
153 9 2 53.6228722811 120.826723727 94.0053202829
154 9 2 52.8268710141 121.409030884 94.3227322687
155 9 2 51.9879053318 121.751169813 94.8252534606
156 9 2 51.1903171774 121.831749423 95.4816146978
157 9 2 50.5146770433 121.653219055 96.2465247108
158 9 2 50.0304401856 121.241645232 97.0647982992
159 9 2 49.7896159634 120.644335767 97.8763863154
160 9 2 49.8220273248 119.925527778 98.6218489839
161 9 2 50.1325925245 119.160532651 99.2477736777
162 9 2 50.7008768384 118.428871603 99.7116433368
163 10 1 15.6739193871 115.12481254 105.698538015
164 10 1 12.8184163918 119.248898261 103.384232358
165 10 2 15.4358556466 114.897414667 106.144629318
166 10 2 14.9728862351 114.695972402 107.049355989
167 10 2 14.5079959188 114.800397429 107.969368173
168 10 2 14.0650044539 115.201304454 108.815820847
169 10 2 13.6657355746 115.862284645 109.506573742
170 10 2 13.3280278183 116.723224192 109.973678204
171 10 2 13.0641085908 117.705783526 110.169570541
172 10 2 12.8794796704 118.720537759 110.071407318
173 10 2 12.7724157361 119.675127526 109.683147478
174 10 2 12.7341216256 120.482677288 109.035191497
175 10 2 12.7495339909 121.069713814 108.181610459
176 10 2 12.7986942825 121.382863062 107.195217624
177 10 2 12.8585679174 121.393715085 106.16093169
178 10 2 12.9051438201 121.10141352 105.168036685
179 10 2 12.9156229679 120.532733641 104.302043963
180 10 2 12.8704964606 119.739641871 103.636898075
181 11 1 103.305761662 29.8035969163 14.771985433
182 11 1 102.911021047 34.3993692845 11.7320763475
183 11 2 103.618262244 29.4029398775 14.5501771558
184 11 2 104.069475458 28.6929485981 13.9453887383
185 11 2 104.324473502 28.0986763933 13.1359033739
186 11 2 104.3742766 27.684417988 12.1875576372
187 11 2 104.228607947 27.4980603309 11.1788448544
188 11 2 103.915007463 27.5667178263 10.1937606466
189 11 2 103.47632161 27.894260929 9.31414695355
190 11 2 102.966798043 28.4609633626 8.61223235931
191 11 2 102.447141087 29.225300117 8.14404865018
192 11 2 101.978978699 30.127732342 7.94432366692
193 11 2 101.619245243 31.0961341542 8.02331595498
194 11 2 101.414992075 32.0523667188 8.36587972545
195 11 2 101.399098939 32.9194003953 8.9328453533
196 11 2 101.587277065 33.6283357836 9.66458958394
197 11 2 101.976637135 34.1246837197 10.4864700336
198 11 2 102.545952632 34.373331818 11.3156286429
199 12 1 113.129926216 35.2551149947 28.6911124517
200 12 1 109.750990501 32.0173423303 31.6266895109
201 12 2 113.112162465 35.7929959617 28.8243419623
202 12 2 112.846788185 36.7689052787 29.0493475352
203 12 2 112.300275333 37.6279218519 29.2413481616
204 12 2 111.520517337 38.2909725545 29.401944689
205 12 2 110.576667297 38.696846025 29.5356003647
206 12 2 109.552834865 38.8077719193 29.6492340225
207 12 2 108.540419873 38.6128635767 29.7515894495
208 12 2 107.629781485 38.1291103094 29.8524384137
209 12 2 106.902002199 37.3998288727 29.9616899929
210 12 2 106.421497393 36.4907152583 30.0884873891
211 12 2 106.230144041 35.4838566803 30.2403745501
212 12 2 106.343463732 34.4702495448 30.4226085584
213 12 2 106.749207921 33.541505371 30.6376804627
214 12 2 107.408474352 32.7815006459 30.8850882253
215 12 2 108.259252897 32.2587317069 31.1613824812
216 12 2 109.222077607 32.0200714834 31.460480939
217 13 1 95.4775874468 18.982945003 12.3366417717
218 13 1 98.6107261918 23.2959278854 10.8876382102
219 13 2 95.4855350506 18.5582677596 11.9803165515
220 13 2 95.4547191526 17.931987258 11.1555298367
221 13 2 95.3827322301 17.5726711884 10.1864272331
222 13 2 95.2945450595 17.5129375526 9.15584248309
223 13 2 95.2166050269 17.7580982142 8.15221326246
224 13 2 95.1744255188 18.2856747364 7.26152032244
225 13 2 95.1902604456 19.0474472319 6.55945057416
226 13 2 95.281075857 19.973849476 6.10449842899
227 13 2 95.457003532 20.9803096826 5.93263418925
228 13 2 95.7204174942 21.9749589962 6.05402545131
229 13 2 96.065717626 22.8670050929 6.45211035635
230 13 2 96.4798401042 23.5750076574 7.08510715954
231 13 2 96.9434481328 24.0343014508 7.88982252438
232 13 2 97.43269444 24.2028903736 8.78741142647
233 13 2 97.9213948936 24.0652752987 9.69056366667
234 13 2 98.3834151143 23.6338667745 10.5114619625
235 14 1 86.1535956054 110.539407154 18.0185689009
236 14 1 85.9500428947 105.228685027 19.5261457139
237 14 2 86.3248013938 110.888117336 18.4141335287
238 14 2 86.4815986528 111.430480876 19.2828719365
239 14 2 86.4259950734 111.779002304 20.2569823345
240 14 2 86.1767674675 111.891587612 21.2563121899
241 14 2 85.7703409596 111.747647742 22.1984102838
242 14 2 85.2574689341 111.349975216 23.0060419193
243 14 2 84.6986069995 110.724489612 23.6142286579
244 14 2 84.1584026218 109.917875062 23.9761709303
245 14 2 83.6998026807 108.993325114 24.0675136921
246 14 2 83.3783160292 108.024782817 23.8885663213
247 14 2 83.2369540109 107.090201 23.4642744186
248 14 2 83.3023100902 106.264437088 22.8419460836
249 14 2 83.5821359294 105.612430045 22.0869399069
250 14 2 84.0646348457 105.18328136 21.27670771
251 14 2 84.7195370467 105.005779578 20.4937350186
252 14 2 85.5008586416 105.085776301 19.8180227271
253 15 1 40.4870929509 66.5302615246 62.0674848714
254 15 1 35.4111772131 68.7055836941 62.2125501777
255 15 2 40.8928133971 66.8912201441 61.9557647635
256 15 2 41.511982863 67.6252314527 61.5667832953
257 15 2 41.8963782099 68.3905044126 60.9836473545
258 15 2 42.0050883509 69.1328519795 60.2691179946
259 15 2 41.8223301689 69.8001766978 59.4979324278
260 15 2 41.3588871051 70.3472192437 58.7499919282
261 15 2 40.6511262778 70.739683692 58.1030790444
262 15 2 39.7576837161 70.957363498 57.6257679275
263 15 2 38.7541198433 70.99598327 57.3711739811
264 15 2 37.7260323456 70.8675884597 57.3721125337
265 15 2 36.7612541721 70.5994474518 57.6381078099
266 15 2 35.9418477962 70.2315661232 58.1545248221
267 15 2 35.3366254407 69.8130414144 58.8839033107
268 15 2 34.9948770271 69.397586275 59.769372147
269 15 2 34.9418775315 69.0386338711 60.7398329842
270 15 2 35.1765832378 68.7844672958 61.7164406815
271 16 1 93.3391288584 48.0348811665 95.080156938
272 16 1 88.6517006469 47.6090238576 97.9723279868
273 16 2 93.596987894 47.5541709081 94.9811218268
274 16 2 94.0520392839 46.6245400407 95.0276481011
275 16 2 94.4233097175 45.7190378136 95.367756897
276 16 2 94.6621332333 44.9084213916 95.9671852545
277 16 2 94.7319160526 44.2547993517 96.7680339283
278 16 2 94.6114720043 43.805970653 97.6940447499
279 16 2 94.2969535876 43.5910678886 98.6575513553
280 16 2 93.8022026621 43.6179019281 99.5674697402
281 16 2 93.1574887984 43.8722499773 100.337600323
282 16 2 92.4067502886 44.3191519484 100.894484808
283 16 2 91.6035892874 44.9060969781 101.184101709
284 16 2 90.8063861198 45.5678096526 101.176790268
285 16 2 90.0729780701 46.2321996872 100.86995395
286 16 2 89.4553876681 46.8269327629 100.288297114
287 16 2 88.9950809747 47.2860236063 99.4815732724
288 16 2 88.719188061 47.5558503711 98.520050195
289 17 1 54.7709935736 101.269235312 11.3648741233
290 17 1 53.3624891711 96.860768347 14.3814160892
291 17 2 54.8177286773 101.742275538 11.6502341805
292 17 2 54.6927330987 102.566601549 12.2653055128
293 17 2 54.3093896634 103.242308707 12.9508109165
294 17 2 53.7106142348 103.701707967 13.6606491494
295 17 2 52.9589587264 103.896826172 14.3465010971
296 17 2 52.1309096628 103.803778675 14.962233931
297 17 2 51.3099166366 103.424946364 15.4681059921
298 17 2 50.5787861016 102.788758649 15.8343891376
299 17 2 50.0121337856 101.947102196 16.0440783808
300 17 2 49.6695836666 100.970591598 16.0944418509
301 17 2 49.5903334061 99.9421330428 15.9972697956
302 17 2 49.7895815872 98.9493676364 15.7777999312
303 17 2 50.2571424046 98.0766831487 15.4724170925
304 17 2 50.9583740732 97.3975222952 15.1253368522
305 17 2 51.8373363344 96.9676886293 14.7845753899
306 17 2 52.8218892611 96.8202601976 14.4975729453
307 18 1 17.6269056776 45.9916970208 29.3517139216
308 18 1 13.666892987 44.4427815441 25.8250793506
309 18 2 17.4642248555 46.3486328617 29.7435217108
310 18 2 17.0721768599 47.1347061917 30.2929187441
311 18 2 16.5827013249 48.0064257705 30.5648905954
312 18 2 16.0228274934 48.8778103197 30.5388085848
313 18 2 15.4260012249 49.6629090984 30.2212108453
314 18 2 14.8290364948 50.2836360828 29.6452063896
315 18 2 14.2687598989 50.6768872988 28.8674573116
316 18 2 13.7786540075 50.8002925807 27.9630141886
317 18 2 13.3858055188 50.6360774984 27.0184754213
318 18 2 13.1084363789 50.1926834494 26.1240940213
319 18 2 12.9542428996 49.5039982475 25.3655512902
320 18 2 12.9196942606 48.6262673399 24.816147198
321 18 2 12.9903543343 47.6329671843 24.5301192868
322 18 2 13.1421974998 46.6081080665 24.5376990636
323 18 2 13.3437985147 45.6385767876 24.8423564795
324 18 2 13.5591968415 44.8062171637 25.4204836527
325 19 1 38.9111169675 31.6163583565 99.9524970358
326 19 1 37.3439812574 26.3211025769 99.8030214313
327 19 2 39.3649705791 31.7172052989 100.2545374
328 19 2 40.0986288559 31.7821514352 100.983219459
329 19 2 40.6341933636 31.6688890639 101.86287411
330 19 2 40.933664356 31.372363866 102.809362326
331 19 2 40.9805613802 30.9042254391 103.732453379
332 19 2 40.7814254251 30.2917654683 104.544049133
333 19 2 40.3652227284 29.5754301613 105.166213946
334 19 2 39.7807045808 28.8051336854 105.538278302
335 19 2 39.0919637766 28.035708624 105.622368675
336 19 2 38.3725927269 27.3219081334 105.406859595
337 19 2 37.6989757074 26.7134153392 104.907433282
338 19 2 37.1433266366 26.2503148516 104.165650255
339 19 2 36.7671069696 25.9594391609 103.245161197
340 19 2 36.6154236509 25.8519229273 102.225905369
341 19 2 36.7129177372 25.9221880867 101.196824361
342 19 2 37.0615184303 26.148452276 100.247755299
343 20 1 52.3559951142 56.5167567437 11.5586378652
344 20 1 48.9218876493 55.9356137871 15.8466641996
345 20 2 52.4589306474 56.0504570531 11.2769457237
346 20 2 52.6972278804 55.0919050998 10.9641477173
347 20 2 52.9614186282 54.0901374392 10.9534325894
348 20 2 53.210232881 53.1278837126 11.2460231644
349 20 2 53.4038021554 52.2842719723 11.8154967624
350 20 2 53.5072934001 51.6276163704 12.6101935561
351 20 2 53.4940839357 51.2091905067 13.5579252258
352 20 2 53.3481880403 51.0585539771 14.572554732
353 20 2 53.0657140056 51.1808580956 15.5618474761
354 20 2 52.6552188557 51.5563763653 16.4358782377
355 20 2 52.1369283971 52.1423024965 17.115227618
356 20 2 51.5408936906 52.8766520851 17.5382209057
357 20 2 50.9042519774 53.6839123257 17.6665495624
358 20 2 50.267841719 54.4819248019 17.4887629429
359 20 2 49.67248028 55.189374006 17.0213119917
360 20 2 49.1552435354 55.7331990308 16.3070497824
361 21 1 111.833562898 70.6340013718 123.937375947
362 21 1 112.368723168 65.3043132736 122.586073123
363 21 2 111.398965408 70.7503331214 124.261372141
364 21 2 110.467659314 70.8449236532 124.70541223
365 21 2 109.456473765 70.7599808662 124.914549793
366 21 2 108.457274525 70.4880333284 124.881452577
367 21 2 107.560834835 70.0386545908 124.62086738
368 21 2 106.848561681 69.4375905843 124.168275924
369 21 2 106.38507576 68.7244129464 123.576660789
370 21 2 106.212321476 67.9489121726 122.911676189
371 21 2 106.345743825 67.1665593457 122.24566377
372 21 2 106.772880618 66.4334500946 121.651058861
373 21 2 107.45449838 65.8011916281 121.193788187
374 21 2 108.328168378 65.3121988755 120.927260826
375 21 2 109.313956828 64.9958284792 120.887500111
376 21 2 110.321710651 64.865703015 121.089860201
377 21 2 111.259274683 64.9184693312 121.527626593
378 21 2 112.04089137 65.1341041791 122.172628127
379 22 1 17.7393324707 108.372259425 111.450230294
380 22 1 12.5793701039 107.532312651 113.235522665
381 22 2 17.9864832429 108.824534022 111.654548116
382 22 2 18.2503494112 109.77636138 111.967356901
383 22 2 18.2311512986 110.790000555 112.180938426
384 22 2 17.9242934245 111.773115156 112.293960271
385 22 2 17.3513997268 112.636151027 112.314255766
386 22 2 16.5583425976 113.300498868 112.258109995
387 22 2 15.6110617374 113.70565926 112.148775465
388 22 2 14.5895539275 113.814757029 112.01435269
389 22 2 13.5805815373 113.617902317 111.885228915
390 22 2 12.6697643662 113.133092016 111.791308394
391 22 2 11.9337756278 112.404569402 111.759286698
392 22 2 11.4333533913 111.498791476 111.810217485
393 22 2 11.2077644688 110.498371587 111.957593518
394 22 2 11.2712253503 109.494549446 112.206116832
395 22 2 11.6116064091 108.578874871 112.551270157
396 22 2 12.191537484 107.834863263 112.979728658
397 23 1 88.0556077246 32.5378179003 41.8880859263
398 23 1 82.7280404481 33.9588184174 41.5478279274
399 23 2 88.4099189016 32.9636244006 41.9111944126
400 23 2 88.9522495371 33.8344596106 41.7663720036
401 23 2 89.2877539938 34.7432195289 41.3988911449
402 23 2 89.3762566562 35.6195346847 40.8532822762
403 23 2 89.2000954618 36.3959928606 40.1903117295
404 23 2 88.7657317514 37.0142835361 39.48144304
405 23 2 88.103161335 37.4305127354 38.802323236
406 23 2 87.263180454 37.6192038464 38.2258878143
407 23 2 86.3127558394 37.5756197455 37.8157128648
408 23 2 85.3289208732 37.3161945738 37.6202202796
409 23 2 84.391754202 36.8770358092 37.6682642272
410 23 2 83.5770807815 36.3106331663 37.9665011721
411 23 2 82.9495606356 35.6810742988 38.4987831557
412 23 2 82.5567952671 35.0582033817 39.2276296396
413 23 2 82.4249889082 34.5112550013 40.0976437568
414 23 2 82.5565600751 34.1025436073 41.0405615876
415 24 1 49.4493540045 16.3509970749 74.9851978547
416 24 1 44.1101400541 16.5566009908 76.3882347336
417 24 2 49.6706822953 15.8426797408 74.982220677
418 24 2 49.9886163393 14.8789734769 75.19111824
419 24 2 50.1448860059 13.9658990899 75.6551494526
420 24 2 50.1107972059 13.1761780394 76.3249469051
421 24 2 49.8750065151 12.5712884583 77.132388145
422 24 2 49.444555098 12.1958615848 77.9968048567
423 24 2 48.8442269238 12.0736137448 78.8323355622
424 24 2 48.1142897739 12.205184672 79.5557516663
425 24 2 47.3068249418 12.5680791976 80.0940435196
426 24 2 46.4809801618 13.1187176255 80.3910750536
427 24 2 45.6975784512 13.7964079044 80.412700433
428 24 2 45.0135742553 14.5288775464 80.1498763574
429 24 2 44.4768622013 15.2388610711 79.619486334
430 24 2 44.1219116315 15.8511425476 78.8628017909
431 24 2 43.9666248147 16.2994113256 77.9417202971
432 24 2 44.0107052022 16.5323060739 76.9331237638
433 25 1 122.091615976 68.5550748858 57.5609587233
434 25 1 117.601614937 67.9137224679 54.4071437626
435 25 2 122.079653443 68.9954300348 57.8975977415
436 25 2 121.998823465 69.9334586719 58.3300544467
437 25 2 121.8332013 70.9454981709 58.4776869708
438 25 2 121.579482544 71.9394882824 58.3325647388
439 25 2 121.242392563 72.8250139106 57.9134409892
440 25 2 120.834255786 73.5215462073 57.2640434667
441 25 2 120.37387237 73.9657825614 56.4490887547
442 25 2 119.88480461 74.1174164628 55.548383532
443 25 2 119.393229307 73.9628113326 54.6495504075
444 25 2 118.925551813 73.5162434614 53.8400413529
445 25 2 118.505999262 72.818600763 53.1991666901
446 25 2 118.154412326 71.933655951 52.7908661666
447 25 2 117.884436795 70.9422538257 52.657881019
448 25 2 117.702279794 69.9349424872 52.8178582229
449 25 2 117.606144029 69.0037201178 53.2617420189
450 25 2 117.586391594 68.2336495935 53.9545993203
451 26 1 57.4284570589 58.1569331264 112.844304081
452 26 1 55.1256280643 55.0947032914 116.823967147
453 26 2 57.3921086427 58.7048685157 112.920640113
454 26 2 57.0964079656 59.6817818406 113.098548731
455 26 2 56.531509387 60.5205744668 113.323863039
456 26 2 55.7514891615 61.1462647891 113.595027343
457 26 2 54.8300313069 61.5032949078 113.906306843
458 26 2 53.8537115026 61.5605945827 114.248310349
459 26 2 52.9141059483 61.3144132024 114.608846258
460 26 2 52.0994444378 60.7886616425 114.974033788
461 26 2 51.4865684495 60.0327328534 115.329568174
462 26 2 51.1339272505 59.1169998245 115.662024511
463 26 2 51.0762504024 58.1264012748 115.960081394
464 26 2 51.3213822549 57.1526997153 116.215552839
465 26 2 51.8495669537 56.2861175413 116.424134408
466 26 2 52.6152491341 55.6071135029 116.585795552
467 26 2 53.5512261708 55.1790491039 116.704782393
468 26 2 54.5747735176 55.0424133713 116.7892307
469 27 1 32.5268696024 3.65357420178 23.0025632423
470 27 1 36.038794838 7.42126166173 24.999787167
471 27 2 32.2015645925 3.41327618769 23.3817928601
472 27 2 31.7968780046 2.9294421398 24.20373166
473 27 2 31.6846707425 2.45182077177 25.1162761084
474 27 2 31.8712408679 2.03869203784 26.0479231707
475 27 2 32.3356536821 1.74245756104 26.9254286601
476 27 2 33.0316498679 1.60486436527 27.6804832495
477 27 2 33.8918619028 1.65319974571 28.2559386841
478 27 2 34.8339544286 1.89780410472 28.6110166918
479 27 2 35.7681288991 2.33112845188 28.7250258143
480 27 2 36.6053084777 2.92842247423 28.5992473776
481 27 2 37.2652571531 3.64999046119 28.2568187029
482 27 2 37.6838930369 4.44480946244 27.7406242016
483 27 2 37.8191292568 5.25517989351 27.1093865756
484 27 2 37.6547100625 6.02198469865 26.4323144003
485 27 2 37.2016924936 6.69007771248 25.7827939478
486 27 2 36.4974385603 7.21331008557 25.231700224
487 28 1 66.0490408101 112.136217284 33.4612048983
488 28 1 63.5335849612 107.883928112 35.9327448512
489 28 2 66.0995768978 112.5913995 33.773673844
490 28 2 65.9640318463 113.409479676 34.3948198623
491 28 2 65.5446035608 114.113387061 35.0288895099
492 28 2 64.8833339582 114.631437707 35.6353514226
493 28 2 64.044308145 114.908888012 36.1761906079
494 28 2 63.1078132314 114.912924451 36.619373409
495 28 2 62.1630203756 114.635654443 36.9417672878
496 28 2 61.2998570707 114.094825736 37.1312492937
497 28 2 60.6008104949 113.332208751 37.1878110378
498 28 2 60.1334090248 112.409789318 37.123559458
499 28 2 59.944067205 111.40411883 36.9616133037
500 28 2 60.053855186 110.399336795 36.7339959237
501 28 2 60.4565782366 109.479501738 36.4787164234
502 28 2 61.1193413768 108.720929495 36.2363052366
503 28 2 61.9855476675 108.185237228 36.0461198848
504 28 2 62.9800568703 107.913727184 35.942757644
505 29 1 107.406904791 14.6535059121 32.5941760655
506 29 1 110.92826907 11.9552350874 35.8861844539
507 29 2 107.158199105 14.3395064358 32.2108597485
508 29 2 106.9131355 13.6827752219 31.4479063076
509 29 2 106.969805691 12.9743940379 30.693960289
510 29 2 107.319965584 12.2626367153 30.0274472929
511 29 2 107.928620283 11.5960848113 29.5188236327
512 29 2 108.737213781 11.0191995301 29.2241544311
513 29 2 109.668966184 10.568269203 29.1800034338
514 29 2 110.635871993 10.2681017038 29.4001003215
515 29 2 111.54672157 10.1297632775 29.8740892866
516 29 2 112.315414653 10.1495698816 30.5684729373
517 29 2 112.868808163 10.3094229768 31.4296654952
518 29 2 113.153383004 10.5784591605 32.3888769958
519 29 2 113.140122182 10.9158632833 33.3683833101
520 29 2 112.827155627 11.2745886409 34.2886104909
521 29 2 112.239930646 11.6056451555 35.0753877257
522 29 2 111.428892469 11.8625646904 35.6667078078
523 30 1 64.3310032101 84.7523811139 109.917370933
524 30 1 59.7377749941 83.251336717 112.594517051
525 30 2 64.3923756111 85.2988923326 109.847082212
526 30 2 64.2871417152 86.3071854165 109.633257762
527 30 2 63.8997629385 87.223478977 109.343786165
528 30 2 63.2588492469 87.9711046051 109.021706095
529 30 2 62.4161196363 88.4887675229 108.713028402
530 30 2 61.4416880842 88.736133439 108.462542345
531 30 2 60.417672848 88.6975049112 108.30973317
532 30 2 59.4307116054 88.3832521266 108.285183137
533 30 2 58.5640646616 87.8288676866 108.407784028
534 30 2 57.890025995 87.0917315509 108.683015212
535 30 2 57.4633338545 86.2458810081 109.102444214
536 30 2 57.3161815141 85.3752623745 109.644495314
537 30 2 57.4552829422 84.5660795113 110.276416114
538 30 2 57.8612608412 83.8989365739 110.957262835
539 30 2 58.4904128367 83.4414911577 111.64163223
540 30 2 59.2786948316 83.2422874898 112.28379997
541 31 1 12.4150649621 74.3445983435 53.7532973241
542 31 1 15.0863662696 71.9083986838 57.9302665129
543 31 2 12.1862888495 73.9963490129 53.3875576871
544 31 2 11.9727046374 73.2477510894 52.7038670081
545 31 2 12.0480892069 72.4206662573 52.0844335102
546 31 2 12.3992078452 71.5764276156 51.5971688708
547 31 2 12.9876934156 70.7779317871 51.2979379292
548 31 2 13.7535434204 70.0839060596 51.2254667556
549 31 2 14.6205890674 69.5435555505 51.3978128735
550 31 2 15.5034378524 69.1920782915 51.8107193647
551 31 2 16.3152568572 69.0474570226 52.4380028758
552 31 2 16.9756873382 69.1088201132 53.233940161
553 31 2 17.4181692113 69.3565210086 54.137435634
554 31 2 17.5960078253 69.7539289615 55.0775900668
555 31 2 17.4866300549 70.2507678264 55.9801628654
556 31 2 17.0936417804 70.7876985958 56.7743389014
557 31 2 16.4464992216 71.3017279924 57.3991831214
558 31 2 15.5978240822 71.7319501378 57.8091946146
559 32 1 64.8617043274 121.49491753 127.65200544
560 32 1 67.0013350204 121.612766174 122.560239218
561 32 2 64.3077647206 121.484146543 127.672413425
562 32 2 63.2903429418 121.646670769 127.563377601
563 32 2 62.3740248559 122.02312679 127.259910896
564 32 2 61.6381053933 122.567728477 126.774852593
565 32 2 61.1454366317 123.219363677 126.137593565
566 32 2 60.9366989978 123.907164414 125.391397373
567 32 2 61.0266933546 124.556966324 124.58945691
568 32 2 61.4029919428 125.09806853 123.790046011
569 32 2 62.0270711377 125.469677848 123.051207947
570 32 2 62.8378227743 125.626449912 122.425464937
571 32 2 63.7571239937 125.542622201 121.955030888
572 32 2 64.6969579326 125.214362221 121.667963712
573 32 2 65.5674362251 124.660116824 121.575607917
574 32 2 66.2849920873 123.918930828 121.671560594
575 32 2 66.7799972057 123.04688819 121.932255016
576 32 2 67.0031081728 122.112000099 122.319108688
577 33 1 37.6543761213 122.13397526 77.5556059018
578 33 1 40.3857472012 117.456513711 76.4698082494
579 33 2 37.975288438 122.567370243 77.6843135627
580 33 2 38.6723524237 123.226010505 78.0764166313
581 33 2 39.4521348258 123.633714963 78.6233777736
582 33 2 40.2584148564 123.750854711 79.2634096502
583 33 2 41.0325565395 123.564285037 79.9262417727
584 33 2 41.7188532237 123.088543535 80.5395254714
585 33 2 42.2696050944 122.364525034 81.035428283
586 33 2 42.6494668844 121.455754151 81.3568166984
587 33 2 42.8386695007 120.442595187 81.462463729
588 33 2 42.8348219244 119.414927138 81.330806637
589 33 2 42.6531291456 118.463951466 80.9619123212
590 33 2 42.3250062694 117.673879326 80.3774712191
591 33 2 41.8952151128 117.114255945 79.6188202817
592 33 2 41.4177842848 116.833621765 78.743175221
593 33 2 40.9510846232 116.855088104 77.8184154504
594 33 2 40.5525088486 117.174230629 76.916897058