LAMMPS input file for bananas

4320 atoms

2 atom types

0 126.992084157 xlo xhi
0 126.992084157 ylo yhi
0 126.992084157 zlo zhi

Masses

 1 1
 2 1

Atoms

1 1 1 113.638820103 111.05588453 106.770324914
2 1 1 111.88210192 113.047957105 111.614246791
3 1 2 113.239993842 110.854225046 106.442220275
4 1 2 112.432774276 110.358599338 106.022456365
5 1 2 111.598078524 109.759369513 105.889578116
6 1 2 110.79769565 109.123608228 106.058826027
7 1 2 110.090287192 108.521717886 106.517902601
8 1 2 109.526040317 108.021013643 107.228093235
9 1 2 109.142093399 107.679587812 108.127794951
10 1 2 108.959150951 107.541014906 109.138131341
11 1 2 108.979596464 107.630379936 110.170141943
12 1 2 109.187275163 107.951991977 111.132890749
13 1 2 109.548966468 108.488991413 111.941754778
14 1 2 110.01741196 109.20488664 112.526137235
15 1 2 110.535622863 110.046880183 112.83590222
16 1 2 111.042074415 110.95068104 112.845944482
17 1 2 111.476313689 111.84636464 112.558477695
18 1 2 111.784469714 112.664746276 112.002832689
19 2 1 59.8673547005 24.2398742324 59.9667949756
20 2 1 54.4499513238 24.8234553685 60.8773798281
21 2 2 60.1577964983 24.7120582772 59.9750033836
22 2 2 60.5341237515 25.6680645318 59.8412878239
23 2 2 60.6573664871 26.6508129696 59.5372043696
24 2 2 60.5077107509 27.5803366068 59.1047243358
25 2 2 60.0902165548 28.3815197578 58.5975220428
26 2 2 59.4343566708 28.9909446292 58.076082545
27 2 2 58.591330266 29.3626716824 57.6021885801
28 2 2 57.6293962358 29.4724268994 57.2332892373
29 2 2 56.6276515878 29.3198142953 57.0172636269
30 2 2 55.6688219609 28.9283520103 56.9880568269
31 2 2 54.8317214046 28.343328695 57.1625858802
32 2 2 54.184068689 27.6276755706 57.5391978511
33 2 2 53.7763149198 26.8562304159 58.097820486
34 2 2 53.637045055 26.1089163046 58.801791746
35 2 2 53.7703724623 25.4634568299 59.6012014533
36 2 2 54.1555639965 24.9882918073 60.4374404709
37 3 1 9.88223634225 74.4707995452 18.2345229328
38 3 1 7.08473279215 69.9717157744 19.7998376528
39 3 2 9.98668054345 74.8338539662 18.6403116515
40 3 2 9.95149334159 75.4904924668 19.4409599835
41 3 2 9.62384151165 76.056316587 20.2446622633
42 3 2 9.03736642453 76.4680873922 20.9929548447
43 3 2 8.24930049925 76.676607496 21.6324245272
44 3 2 7.33525062091 76.65120527 22.119577027
45 3 2 6.38230677522 76.3825304811 22.424801364
46 3 2 5.48110402904 75.8834065399 22.5350688242
47 3 2 4.71756138634 75.1876616814 22.4551204918
48 3 2 4.16505050054 74.3470456118 22.2070351119
49 3 2 3.8777080445 73.4265126607 21.8282166723
50 3 2 3.88550129742 72.4983013682 21.3679851296
51 3 2 4.19149670745 71.6353501345 20.8830810274
52 3 2 4.77158039317 70.9046490797 20.4324937469
53 3 2 5.57665605937 70.361134074 20.0720847828
54 3 2 6.53711999321 70.0426794791 19.8494961174
55 4 1 99.5654967223 125.202941179 17.3333350404
56 4 1 100.056093812 119.760491903 16.5227479515
57 4 2 99.143385669 125.35336954 17.659793545
58 4 2 98.2295240012 125.495910796 18.1266863093
59 4 2 97.2271459101 125.435736663 18.381769134
60 4 2 96.2277816696 125.164417285 18.4150395616
61 4 2 95.322686849 124.692768134 18.2367127416
62 4 2 94.5945246117 124.049864202 17.876290347
63 4 2 94.1098311893 123.280389901 17.3798715758
64 4 2 93.9129512817 122.440566189 16.8059513324
65 4 2 94.0219961559 121.593026187 16.220088573
66 4 2 94.427192853 120.801106337 15.6889307824
67 4 2 95.0917749668 120.12307345 15.2741392335
68 4 2 95.9553338037 119.606813845 15.0267687275
69 4 2 96.9393244736 119.285468641 14.9826140848
70 4 2 97.9542250467 119.174413028 15.1589475434
71 4 2 98.9076962383 119.269854863 15.5529444396
72 4 2 99.7129978873 119.549180311 16.1419406697
73 5 1 73.6249119291 78.8887826653 14.7434255226
74 5 1 69.2390598541 75.5306809914 14.6696299537
75 5 2 73.50518089 79.4285070502 14.7851826148
76 5 2 73.1352644387 80.3910684983 14.684747119
77 5 2 72.5931231354 81.2165082528 14.3714070001
78 5 2 71.9133091789 81.8293556409 13.8858958523
79 5 2 71.1429232619 82.1735172154 13.2846401989
80 5 2 70.3373214696 82.2173895232 12.6346163655
81 5 2 69.5550697197 81.9567396751 12.0072457671
82 5 2 68.8526056364 81.4150911625 11.4718850368
83 5 2 68.279094411 80.6415797541 11.089504354
84 5 2 67.8719475266 79.7064749017 10.9071301758
85 5 2 67.6534128012 78.6947748679 10.953558901
86 5 2 67.6285465588 77.698459361 11.2367321553
87 5 2 67.7847527586 76.8081058311 11.7430129332
88 5 2 68.0929310907 76.1046335771 12.4384285748
89 5 2 68.5101293916 75.6519281691 13.2717672829
90 5 2 68.983458619 75.4910184496 14.1792459415
91 6 1 31.5985065868 86.4679067983 49.1272535758
92 6 1 27.8374882169 82.5553201276 50.1589499586
93 6 2 31.7243249244 86.7908735654 49.5599703439
94 6 2 31.7258896212 87.4166916025 50.3856817627
95 6 2 31.4245585685 88.0104853007 51.1794441024
96 6 2 30.8476055321 88.5055022095 51.8833854814
97 6 2 30.047426485 88.8439931188 52.4478209587
98 6 2 29.0967638544 88.9824757449 52.8357811836
99 6 2 28.0820762438 88.8956980248 53.0263820528
100 6 2 27.0956579626 88.5789397738 53.0167282406
101 6 2 26.2272266464 88.0484429178 52.8221771006
102 6 2 25.5557457343 87.3399310856 52.4749388835
103 6 2 25.1422271624 86.5053534949 52.021140859
104 6 2 25.024170289 85.6081499207 51.5166229383
105 6 2 25.2121439284 84.7174683288 51.0218480158
106 6 2 25.6888230313 83.9018622238 50.5963909376
107 6 2 26.4105678174 83.2230421803 50.2935084133
108 6 2 27.3114014242 82.7302510891 50.15528481
109 7 1 116.198874367 58.5482259484 40.2731153523
110 7 1 111.824298314 61.394541648 38.4621591534
111 7 2 116.358226633 58.1308740354 39.94477738
112 7 2 116.428547144 57.2918074435 39.3410619741
113 7 2 116.196179246 56.4497993154 38.7838569097
114 7 2 115.679545569 55.689107035 38.3064818906
115 7 2 114.922978805 55.0865762637 37.9349803251
116 7 2 113.992680909 54.7046366645 37.6857455393
117 7 2 112.970688963 54.5856116044 37.5640265692
118 7 2 111.947397716 54.7478604929 37.5634497248
119 7 2 111.013320345 55.1841053708 37.6665995354
120 7 2 110.250838422 55.862094277 37.8466061226
121 7 2 109.726693052 56.7275409282 38.0695943186
122 7 2 109.485901598 57.7090727686 38.2977712966
123 7 2 109.547654474 58.7247363879 38.4928712862
124 7 2 109.903565986 59.6894673551 38.6196433962
125 7 2 110.518438665 60.5228436146 38.649064639
126 7 2 111.333471426 61.1564157411 38.5609852981
127 8 1 98.1596837645 51.0811861419 19.5762172139
128 8 1 98.686846592 47.0750424294 23.3432987062
129 8 2 98.3515437108 50.9542120088 19.0717879141
130 8 2 98.9024582099 50.6520842755 18.2479784345
131 8 2 99.6540478755 50.2746444096 17.6429146913
132 8 2 100.532642332 49.837859281 17.310137672
133 8 2 101.452995055 49.3631049221 17.278370157
134 8 2 102.326053367 48.8752181587 17.5488987147
135 8 2 103.06707535 48.4002328007 18.0954564349
136 8 2 103.603353844 47.9630067288 18.8666170864
137 8 2 103.88084351 47.5849561662 19.7904824817
138 8 2 103.869086919 47.2821036462 20.7812358036
139 8 2 103.563990668 47.0636176018 21.7469635795
140 8 2 102.988198477 46.9309766871 22.5980333481
141 8 2 102.189027277 46.8778350021 23.2552634194
142 8 2 101.234154402 46.8906005044 23.6571400734
143 8 2 100.205448974 46.9496738878 23.7654243716
144 8 2 99.1915097571 47.0312350063 23.5686375344
145 9 1 78.0855092372 100.125786586 10.311241785
146 9 1 75.0247043713 102.949546188 13.9410966506
147 9 2 77.8091362392 99.9378859561 9.86886987434
148 9 2 77.1436481178 99.5035604523 9.20408650489
149 9 2 76.3283506823 99.0085848757 8.79943939781
150 9 2 75.425515315 98.5126218355 8.68826847785
151 9 2 74.505392247 98.0754239454 8.87716409967
152 9 2 73.6398074371 97.7513875332 9.34536635466
153 9 2 72.8956158276 97.5845945599 10.0466572811
154 9 2 72.3286076949 97.6047946677 10.913573508
155 9 2 71.9784235154 97.8246935791 11.8635553606
156 9 2 71.8649408413 98.2387950044 12.8064719547
157 9 2 71.9864625155 98.8239016138 13.6528363853
158 9 2 72.3198713625 99.5412294122 14.3219622193
159 9 2 72.8227372574 100.339942796 14.7493178476
160 9 2 73.4371845183 101.161788084 14.8924083694
161 9 2 74.0951671201 101.946403183 14.7346488886
162 9 2 74.7246709076 102.636819432 14.2868761827
163 10 1 112.111278478 61.4857597047 109.935070879
164 10 1 108.6821677 65.4501904613 111.679341244
165 10 2 112.649283947 61.5871185617 110.022581371
166 10 2 113.604973071 61.982518421 110.083959376
167 10 2 114.419221909 62.6202340047 110.022577975
168 10 2 115.017427991 63.4506406498 109.861257493
169 10 2 115.344680571 64.4065504182 109.631927436
170 10 2 115.370765587 65.4093360973 109.3727162
171 10 2 115.092919598 66.3760978608 109.124475771
172 10 2 114.536081661 67.2272193658 108.927058177
173 10 2 113.750620203 67.8936245702 108.815683076
174 10 2 112.807742074 68.3230738285 108.817727588
175 10 2 111.793002234 68.4849253968 108.950230936
176 10 2 110.798505643 68.3729283453 109.218341366
177 10 2 109.914512147 68.0057923138 109.614846907
178 10 2 109.221209526 67.4254821784 110.120832711
179 10 2 108.7814046 66.6933930649 110.707405101
180 10 2 108.63479855 65.8847543474 111.338325144
181 11 1 36.9825233549 97.735033735 62.7654191934
182 11 1 31.9557207474 97.295841871 65.014053693
183 11 2 37.0186749379 97.5646023207 62.2390849041
184 11 2 36.9792833936 97.0537582151 61.3385647116
185 11 2 36.790388195 96.3398568455 60.6118505658
186 11 2 36.4524909716 95.4940829503 60.1179457209
187 11 2 35.979674489 94.5996410962 59.8946334854
188 11 2 35.3983190427 93.7441718041 59.9550333747
189 11 2 34.7446979648 93.0117633503 60.2864053022
190 11 2 34.0616714063 92.4752873443 60.8513108046
191 11 2 33.3947797494 92.1897566769 61.5910254571
192 11 2 32.7880927231 92.1873112419 62.4308914483
193 11 2 32.2801925651 92.4742884709 63.2871224398
194 11 2 31.9006573542 93.0306456929 64.0744404672
195 11 2 31.6673650474 93.811786971 64.7138487987
196 11 2 31.5848639517 94.7526279021 65.1398322759
197 11 2 31.6439581584 95.7735278866 65.3063288453
198 11 2 31.8225457254 96.7875491561 65.1909279918
199 12 1 63.5351038097 50.8415441577 74.6239737319
200 12 1 59.429117067 47.8842055796 76.8405053613
201 12 2 63.5426087489 51.3764891623 74.7694354312
202 12 2 63.3303301342 52.3690203299 74.9774490903
203 12 2 62.8374746591 53.2718584373 75.1016539356
204 12 2 62.1037389015 54.0018047713 75.1491954831
205 12 2 61.1907750336 54.4914192417 75.1342069036
206 12 2 60.1765713907 54.6951673653 75.0765208218
207 12 2 59.148344043 54.5935706124 74.9998616254
208 12 2 58.1945872839 54.1949818227 74.9296830512
209 12 2 57.3970076116 53.5348238662 74.8908481441
210 12 2 56.8230764005 52.6723609433 74.905363058
211 12 2 56.5198800653 51.6852968115 74.9903712529
212 12 2 56.5098282605 50.6626922953 75.1565909148
213 12 2 56.7886113001 49.6968476305 75.4073380214
214 12 2 57.325592974 48.8748895439 75.7382240999
215 12 2 58.0666029568 48.2708298854 76.1375562243
216 12 2 58.9388742879 47.9388196455 76.5874027944
217 13 1 94.6882695069 65.8821360888 95.5388644387
218 13 1 96.1490229659 65.704955475 100.863598932
219 13 2 94.5695051931 66.388157035 95.3459410657
220 13 2 94.2094939136 67.3446158129 95.1755635557
221 13 2 93.7105633669 68.2474248204 95.2727963524
222 13 2 93.1313211096 69.0250715145 95.6377539358
223 13 2 92.5376948962 69.6174515626 96.2461483872
224 13 2 91.9969235404 69.9813471919 97.051503168
225 13 2 91.5714282768 70.0943663734 97.9893893319
226 13 2 91.3131232323 69.9569837961 98.9832980514
227 13 2 91.2586835923 69.5924975997 99.9516141926
228 13 2 91.4262027554 69.044905812 100.815055317
229 13 2 91.8135431685 68.3748960461 101.503898063
230 13 2 92.3985311591 67.6543139865 101.964333246
231 13 2 93.1409780064 66.9596148471 102.163370418
232 13 2 93.9863430354 66.3648946828 102.091844863
233 13 2 94.8707048543 65.9351367323 101.765252933
234 13 2 95.7265876177 65.7202883691 101.2223396
235 14 1 120.668350069 108.02113574 0.292666727407
236 14 1 119.06975474 105.791997277 5.08781278826
237 14 2 120.540306355 108.556907739 0.22993905811
238 14 2 120.086198249 109.486630892 0.17654712112
239 14 2 119.39268756 110.254834552 0.22508650403
240 14 2 118.525933951 110.798312682 0.388853760243
241 14 2 117.567887711 111.074342372 0.670642730492
242 14 2 116.608820211 111.064577925 1.06248989172
243 14 2 115.739095907 110.776723015 1.54640021091
244 14 2 115.04093586 110.24382852 2.09598734428
245 14 2 114.580923509 109.521280019 2.67887868196
246 14 2 114.403935766 108.681749548 3.25966602487
247 14 2 114.529052607 107.808571736 3.80313294744
248 14 2 114.947817983 106.988148078 4.27746468067
249 14 2 115.625010564 106.302071669 4.65714794326
250 14 2 116.501854074 105.819690211 4.92529640906
251 14 2 117.501374585 105.591785155 5.07518985053
252 14 2 118.535416492 105.645943109 5.11088666954
253 15 1 68.391312831 75.2265372456 84.5723214644
254 15 1 72.1613824477 71.282961105 85.4399465964
255 15 2 67.988054169 75.2517634633 84.9519629762
256 15 2 67.2172305353 75.0680826224 85.6194525159
257 15 2 66.4940893129 74.5969523802 86.1926480137
258 15 2 65.8941951338 73.8776042734 86.6354970694
259 15 2 65.4818789912 72.9718942332 86.9238280129
260 15 2 65.3043746418 71.9586645834 87.0475530868
261 15 2 65.3875133749 70.9265577726 87.0115879189
262 15 2 65.7333695593 69.9659368522 86.8354034756
263 15 2 66.3200715706 69.1606491257 86.5512513356
264 15 2 67.1037953307 68.5803836912 86.2012240444
265 15 2 68.0227587559 68.2743194664 85.8334184917
266 15 2 69.0028530285 68.2666426614 85.4975520081
267 15 2 69.9643974172 68.5543422708 85.2404307634
268 15 2 70.8294019633 69.1074845183 85.1016835094
269 15 2 71.5286760566 69.8719412405 85.1101495249
270 15 2 72.0081349748 70.7743235247 85.2812499929
271 16 1 11.5191329429 84.2301529375 13.7272484442
272 16 1 9.0461988291 85.510141671 8.95606234722
273 16 2 11.1744327166 84.1370281395 14.1513841702
274 16 2 10.4366477321 84.1685041366 14.8781114845
275 16 2 9.6246189603 84.4558762607 15.4538514841
276 16 2 8.79794496592 84.9636593367 15.8174673061
277 16 2 8.01755918646 85.6362783199 15.9271566391
278 16 2 7.34017601237 86.4031338136 15.7642618927
279 16 2 6.81312142192 87.1850370149 15.3349707866
280 16 2 6.47001934477 87.9014275625 14.6697523569
281 16 2 6.32772693068 88.4777163984 13.8205797846
282 16 2 6.3847980653 88.8520843614 12.856193179
283 16 2 6.6216151797 88.9811168379 11.8558341007
284 16 2 7.00217733929 88.8437608882 10.9020229051
285 16 2 7.47738163282 88.4432441658 10.0730372323
286 16 2 7.98949877148 87.8067807252 9.43577720981
287 16 2 8.47743495929 86.9830905336 9.03966768455
288 16 2 8.88230042932 86.0379587761 8.91215328006
289 17 1 27.3516453374 31.0880289846 111.761283799
290 17 1 27.8528137048 25.894235623 109.947080986
291 17 2 27.3590640845 31.4756390339 111.364944298
292 17 2 27.5673971381 32.0872144757 110.554991936
293 17 2 28.002601811 32.4963505751 109.708437415
294 17 2 28.6150863647 32.6571714827 108.888407344
295 17 2 29.3391004735 32.5464346154 108.155610696
296 17 2 30.0987281907 32.1656491551 107.562805352
297 17 2 30.8148074845 31.5409384914 107.14998936
298 17 2 31.4121456454 30.7206591442 106.940755221
299 17 2 31.826372901 29.7709931961 106.940139491
300 17 2 32.0098095481 28.7699159728 107.134163717
301 17 2 31.9358118311 27.8000888001 107.491108537
302 17 2 31.6012004484 26.9413246451 107.964404807
303 17 2 31.0265503373 26.2633133781 108.496878265
304 17 2 30.2543153239 25.8192697264 109.025960801
305 17 2 29.3449585699 25.6410828945 109.489393384
306 17 2 28.3714415173 25.7364099487 109.830900795
307 18 1 84.9447945551 90.617329908 42.0328180132
308 18 1 82.2560165081 88.4066181544 46.3224820114
309 18 2 84.979512205 91.1706283691 42.0389078243
310 18 2 84.8123648172 92.1920030266 42.0869241849
311 18 2 84.3602990837 93.1180450053 42.1943152341
312 18 2 83.6672330908 93.8678786813 42.3699825306
313 18 2 82.7990514541 94.3766893463 42.6166044358
314 18 2 81.8376001124 94.6016308955 42.9303919882
315 18 2 80.8732262884 94.5257311351 43.301434257
316 18 2 79.9965435817 94.1594387528 43.7146016971
317 18 2 79.2901727806 93.5396709475 44.1509251666
318 18 2 78.8212111985 92.7264485254 44.5893249133
319 18 2 78.6351169332 91.797425164 45.008531938
320 18 2 78.7515654823 90.840809487 45.3890266068
321 18 2 79.1626563747 89.9473250837 45.7148178137
322 18 2 79.8336332773 89.2019412968 45.9749005267
323 18 2 80.7060519416 88.6761284935 46.1642588677
324 18 2 81.7031072409 88.4213437327 46.2843232959
325 19 1 48.0605712148 104.046865088 30.2913317725
326 19 1 49.4783630221 99.0872999491 32.2688481648
327 19 2 48.1436657136 104.469832288 30.6400087585
328 19 2 48.1812145271 105.1237711 31.4427566195
329 19 2 48.0771496183 105.544129866 32.3839893288
330 19 2 47.8574880879 105.687543239 33.3863023676
331 19 2 47.5587833602 105.5358887 34.3667239085
332 19 2 47.2247934353 105.097938385 35.2442774752
333 19 2 46.9024924649 104.408559522 35.9473627327
334 19 2 46.6377891836 103.525536382 36.4202816659
335 19 2 46.4713424507 102.524303391 36.628315305
336 19 2 46.4348553037 101.49106949 36.5608882668
337 19 2 46.5481853112 100.514960416 36.2325326725
338 19 2 46.8175346086 99.679895131 35.681563584
339 19 2 47.23488459 99.0569368319 34.966586688
340 19 2 47.7787267827 98.6978157316 34.1611565446
341 19 2 48.4160232871 98.6302139873 33.3470722856
342 19 2 49.1052180928 98.8552425459 32.6069218422
343 20 1 104.779581888 35.8840234753 120.526912428
344 20 1 100.647800025 33.0677191447 122.875273477
345 20 2 104.621663622 36.2644651344 120.155822744
346 20 2 104.201351137 36.7974134373 119.373036993
347 20 2 103.639141996 37.0628901046 118.544246891
348 20 2 102.970371822 37.043733891 117.753153026
349 20 2 102.240088989 36.7487270776 117.080020071
350 20 2 101.498948588 36.2117949902 116.594360879
351 20 2 100.798595346 35.4889137969 116.348600571
352 20 2 100.186956352 34.6530084298 116.373298126
353 20 2 99.7038726263 33.7873056722 116.674361011
354 20 2 99.3774677209 32.9777482599 117.232506731
355 20 2 99.2215843319 32.3051614309 118.00502038
356 20 2 99.2345225753 31.8378859201 118.929647986
357 20 2 99.3991949261 31.6255488849 119.930270798
358 20 2 99.6846837012 31.6945405219 120.923843304
359 20 2 100.049059123 32.045608671 121.827962609
360 20 2 100.443201108 32.6537906522 122.568379238
361 21 1 51.1056991241 126.700371353 24.3463933068
362 21 1 53.2496658108 121.611794557 24.5130789434
363 21 2 50.570001645 126.732812989 24.4855239619
364 21 2 49.5453614973 126.619425927 24.5889935379
365 21 2 48.5715241017 126.278904205 24.4934127104
366 21 2 47.7361582951 125.729505211 24.2217976766
367 21 2 47.1143115993 125.008524943 23.8132096812
368 21 2 46.7615698396 124.168898568 23.3191946881
369 21 2 46.7089906457 123.274375533 22.7990851039
370 21 2 46.960272632 122.393708967 22.3145917873
371 21 2 47.4914182779 121.594389019 21.9241792694
372 21 2 48.2529212388 120.93649131 21.6777368681
373 21 2 49.1742787162 120.467201205 21.6120314098
374 21 2 50.1704175997 120.216512987 21.7473560318
375 21 2 51.1494486537 120.194495963 22.0856805166
376 21 2 52.0210419756 120.390376671 22.610471752
377 21 2 52.7046603247 120.773520853 23.2882006799
378 21 2 53.1368998769 121.296225686 24.0713983802
379 22 1 88.5296997399 91.924085652 61.9776513312
380 22 1 86.1092392474 95.8896145881 58.9886812205
381 22 2 89.0733109501 91.8626661092 61.8876731115
382 22 2 90.0238623205 91.7417240474 61.4936234688
383 22 2 90.8182664726 91.6378729754 60.8366706476
384 22 2 91.3897893654 91.5788043708 59.9745091232
385 22 2 91.6920119893 91.588127909 58.9835375957
386 22 2 91.7030613342 91.6832195043 57.9518954524
387 22 2 91.4276040563 91.8736375419 56.971429099
388 22 2 90.8964211247 92.1602516566 56.1293204044
389 22 2 90.1636022182 92.5351634678 55.5001403067
390 22 2 89.3016155959 92.9824264959 55.1390518717
391 22 2 88.394702809 93.4794996413 55.0767823266
392 22 2 87.5312003084 93.9993017453 55.3168223553
393 22 2 86.7954878136 94.5126799653 55.8351079322
394 22 2 86.2602973263 94.9910669787 56.5822136938
395 22 2 85.9800838036 95.4090848177 57.4878579281
396 22 2 85.9860617335 95.7468580036 58.4673085652
397 23 1 20.3724972872 86.0811127812 60.7479034634
398 23 1 18.4421909872 90.5877869403 63.2938407511
399 23 2 20.9244309391 86.0288303233 60.7520719811
400 23 2 21.9506233133 86.1527803893 60.681251056
401 23 2 22.891366313 86.5593507515 60.5290894307
402 23 2 23.6653022041 87.2178704341 60.3270372711
403 23 2 24.2062772746 88.0747039543 60.1110921321
404 23 2 24.4693715685 89.0581400528 59.9185178764
405 23 2 24.4349932201 90.0849279837 59.7844481734
406 23 2 24.1106641999 91.0678655976 59.7386841587
407 23 2 23.5303347071 91.9237475841 59.8029781403
408 23 2 22.7512886999 92.5809494139 59.9890509343
409 23 2 21.8489226153 92.9859557227 60.2975235434
410 23 2 20.9098731863 93.108238094 60.7178605542
411 23 2 20.0241207342 92.9430376425 61.2293304122
412 23 2 19.2767877036 92.511798774 61.8028950474
413 23 2 18.7403799787 91.8602145846 62.4038566169
414 23 2 18.4681781658 91.0540620579 62.9950201204
415 24 1 14.6016978019 60.2444180807 45.0228345942
416 24 1 10.9892839321 59.145787149 49.0553855451
417 24 2 14.6353549748 60.7786725075 44.8785397911
418 24 2 14.4640112501 61.7603809529 44.5950969091
419 24 2 14.0015194236 62.6490581195 44.3308920354
420 24 2 13.2883636711 63.3724524406 44.1270304647
421 24 2 12.3878755154 63.8733774396 44.0191173609
422 24 2 11.3804613268 64.1149241235 44.0340124417
423 24 2 10.3562734982 64.0838251397 44.1873817869
424 24 2 9.40699329451 63.7916640597 44.4822699172
425 24 2 8.61747435112 63.2738195669 44.9088222943
426 24 2 8.05800849142 62.5862407848 45.4451835359
427 24 2 7.77791881515 61.8003476637 46.0594894749
428 24 2 7.80106402961 60.9965212432 46.7127714935
429 24 2 8.12366379231 60.256777135 47.3625084085
430 24 2 8.71464327905 59.6572900194 47.9665021632
431 24 2 9.51846557108 59.2614505269 48.4867240679
432 24 2 10.4601936969 59.1140873512 48.8927810131
433 25 1 60.7680345468 71.6197959583 106.158148749
434 25 1 58.86218172 68.3038079811 110.144367484
435 25 2 61.0916476254 72.0342387303 106.333913797
436 25 2 61.5196840195 72.8471956852 106.812804021
437 25 2 61.6928398197 73.6375396008 107.459969822
438 25 2 61.6053369037 74.324696159 108.230430149
439 25 2 61.2751554943 74.8374962937 109.067965981
440 25 2 60.7423953106 75.1206630604 109.910244546
441 25 2 60.0656205852 75.1398499828 110.694500782
442 25 2 59.3165220916 74.8847716416 111.36325821
443 25 2 58.5733827213 74.3701411631 111.869567758
444 25 2 57.9139422075 73.6343291576 112.181287043
445 25 2 57.4083113566 72.73586634 112.284010065
446 25 2 57.1125816353 71.7481086122 112.182380274
447 25 2 57.0637125831 70.7525508685 111.899667335
448 25 2 57.2761630495 69.8313989538 111.475646156
449 25 2 57.7405733084 69.0600768205 110.962971513
450 25 2 58.4246181718 68.5003518369 110.42237871
451 26 1 5.08248592951 80.2793652367 11.1069511994
452 26 1 8.08989010173 79.8439930441 6.49349671709
453 26 2 4.59039782382 80.0245300366 11.0899246003
454 26 2 3.6468042238 79.6662581667 10.8559964139
455 26 2 2.75139667093 79.4761193889 10.3706691319
456 26 2 1.98999548483 79.4554985791 9.66832090835
457 26 2 1.43620666295 79.5903295039 8.80311077569
458 26 2 1.14471289066 79.8523769194 7.84404219426
459 26 2 1.14628936059 80.201810139 6.86867357113
460 26 2 1.44499869612 80.5908334932 5.95604901858
461 26 2 2.01782065408 80.9680427778 5.17949369457
462 26 2 2.81675035842 81.2831106095 4.59993041056
463 26 2 3.77317381633 81.4913736321 4.26032668007
464 26 2 4.8041219003 81.5579034625 4.18177834468
465 26 2 5.81983276237 81.4606903191 4.36158674444
466 26 2 6.73193338659 81.1926491549 4.77350469353
467 26 2 7.4614945533 80.7622654403 5.37012884105
468 26 2 7.94622502648 80.1928217353 6.08722035984
469 27 1 103.514927902 115.668098126 96.8631253229
470 27 1 107.160500924 114.523882513 92.8733184313
471 27 2 103.104366422 115.299446951 96.9171361566
472 27 2 102.314749249 114.641609605 96.7859692521
473 27 2 101.567273286 114.062868745 96.3619542619
474 27 2 100.93926847 113.599404632 95.6805872691
475 27 2 100.497175265 113.27689036 94.8008213037
476 27 2 100.290488787 113.108151822 93.799692932
477 27 2 100.34724746 113.091998661 92.7653005791
478 27 2 100.671477383 113.213332773 91.7887745932
479 27 2 101.242825369 113.444524457 90.9559709578
480 27 2 102.018414078 113.747930787 90.3396457482
481 27 2 102.936750176 114.079326665 89.9928236098
482 27 2 103.923329283 114.391935821 89.9439647036
483 27 2 104.897426853 114.640694343 90.194370638
484 27 2 105.779456 114.786358136 90.7180658312
485 27 2 106.498221625 114.799079912 91.4641651161
486 27 2 106.997409667 114.661129693 92.3615117869
487 28 1 99.8986242021 13.8675340029 51.2099189528
488 28 1 97.991906101 8.87955187127 52.6249989503
489 28 2 99.5074378697 14.2425032775 51.09264626
490 28 2 98.6931931905 14.7732384046 50.7337927544
491 28 2 97.8251358123 15.0375882252 50.2337471849
492 28 2 96.9689253331 15.0072602838 49.6511376737
493 28 2 96.1891415378 14.6808212148 49.052117826
494 28 2 95.5433981232 14.0838273909 48.504337005
495 28 2 95.0770913638 13.2664955272 48.0707742737
496 28 2 94.8192623624 12.2991255626 47.8039980215
497 28 2 94.7799500316 11.2656930075 47.741374496
498 28 2 94.9492760734 10.2561948011 47.9016619694
499 28 2 95.2983453596 9.35844633071 48.2833009721
500 28 2 95.7818796461 8.65007729367 48.8645564344
501 28 2 96.3423445629 8.19145595832 49.6054987795
502 28 2 96.9151937192 8.02018675743 50.4516433985
503 28 2 97.4347519334 8.14768274476 51.338916776
504 28 2 97.8402013512 8.5581253257 52.1994966204
505 29 1 48.6594957388 48.1733776375 79.0326749468
506 29 1 49.8695083711 49.6940193303 73.8614556193
507 29 2 49.0793453014 47.9443037425 79.3130908583
508 29 2 49.883010336 47.3811785933 79.6454499858
509 29 2 50.6594456288 46.6971727671 79.6977403002
510 29 2 51.3527848842 45.9651697725 79.4591982619
511 29 2 51.9147357884 45.2624279319 78.9455689229
512 29 2 52.3089817247 44.6635384916 78.1976708074
513 29 2 52.5144919358 44.2336268292 77.2776754123
514 29 2 52.5274384216 44.0224164496 76.2634404419
515 29 2 52.3615448506 44.0596968201 75.2414132856
516 29 2 52.0468356847 44.3526081405 74.2987515698
517 29 2 51.6268995293 44.8849905326 73.5153789731
518 29 2 51.1549161489 45.6188569702 72.9567003968
519 29 2 50.6888092732 46.4978556947 72.6676404826
520 29 2 50.2859670045 47.4524065275 72.6685488519
521 29 2 49.9980110448 48.4060429175 72.9533452919
522 29 2 49.8660915166 49.2823816622 73.4900739512
523 30 1 34.9622170622 82.3725833559 39.2149642359
524 30 1 30.2678160052 80.8413115711 36.7379102399
525 30 2 35.0342117343 82.1687211756 39.7254919694
526 30 2 34.9512252526 81.8703288479 40.7141907475
527 30 2 34.5870860706 81.6878972567 41.6668561567
528 30 2 33.9678972184 81.6202934204 42.4947963102
529 30 2 33.1430088219 81.6559181145 43.120687695
530 30 2 32.1805199705 81.77376311 43.4856230033
531 30 2 31.1610716676 81.9453260168 43.5544803762
532 30 2 30.1704966181 82.1372082012 43.3191246673
533 30 2 29.2919958071 82.3141589814 42.7991489393
534 30 2 28.5985549524 82.4422886333 42.0400886093
535 30 2 28.1462920516 82.492157348 41.1092710165
536 30 2 27.9693423761 82.4414585921 40.0896787158
537 30 2 28.0767471328 82.2770522881 39.0723858393
538 30 2 28.4516293822 81.9961624978 38.1482569328
539 30 2 29.0527323261 81.6066304412 37.3996648951
540 30 2 29.8181797548 81.1261997908 36.8929829087
541 31 1 36.55071997 94.861536004 94.1221084741
542 31 1 36.2604609168 94.292044505 88.6349033407
543 31 2 36.6479592107 94.3922425403 94.4008373085
544 31 2 36.6513160595 93.432963763 94.7922743662
545 31 2 36.4338250702 92.4365560023 94.9748099928
546 31 2 36.0277742661 91.4849300703 94.9202129118
547 31 2 35.4826383938 90.6559150354 94.6218658592
548 31 2 34.860569432 90.0161643104 94.0953687293
549 31 2 34.2307316049 89.615080372 93.3771166864
550 31 2 33.6629972481 89.4803118573 92.5209828425
551 31 2 33.2215781319 89.6152334642 91.593407867
552 31 2 32.9591727299 89.998638357 90.667344098
553 31 2 32.9121628942 90.5866711125 89.8156061307
554 31 2 33.0972977466 91.3168250248 89.1042339623
555 31 2 33.5101670413 92.1136394245 88.5864736227
556 31 2 34.1256031465 92.8955777166 88.297923941
557 31 2 34.8999750071 93.5824592241 88.2532918073
558 31 2 35.7751649989 94.1027674413 88.4450516795
559 32 1 36.5107490467 25.0267616591 84.0481797617
560 32 1 36.5533818486 20.4734277871 87.1760103447
561 32 2 36.077379587 25.3626227171 84.1304588547
562 32 2 35.1431715486 25.7924937714 84.2566183919
563 32 2 34.1208675663 25.9305755412 84.3529407869
564 32 2 33.1013117801 25.7630416167 84.4296766599
565 32 2 32.1750978394 25.3039216421 84.4988618903
566 32 2 31.4243115337 24.5938225504 84.5732205782
567 32 2 30.9150488927 23.6962273507 84.6650052772
568 32 2 30.6913917092 22.6917088208 84.7848802062
569 32 2 30.7713896023 21.6705855146 84.940949235
570 32 2 31.1454148423 20.7246894667 85.1380172377
571 32 2 31.7770398926 19.9389959484 85.3771521417
572 32 2 32.6063576826 19.3838781986 85.6555875888
573 32 2 33.5554419768 19.108693091 85.9669750811
574 32 2 34.5354501427 19.1372823872 86.30196263
575 32 2 35.45472092 19.465799624 86.649047165
576 32 2 36.2271290986 20.0630607078 86.9956230073
577 33 1 32.5589559653 116.996584446 50.5859572524
578 33 1 30.1264465788 114.06513087 54.5868907781
579 33 2 33.0921442131 117.118374899 50.6768361062
580 33 2 34.0082358511 117.420693353 51.0547642402
581 33 2 34.7520864767 117.781950298 51.678967474
582 33 2 35.2622236396 118.153080484 52.5008387971
583 33 2 35.4984772471 118.484118737 53.4537542807
584 33 2 35.4456409604 118.728754159 54.4591456712
585 33 2 35.1148582119 118.848551238 55.4336616764
586 33 2 34.5426065112 118.816453143 56.2967652128
587 33 2 33.7873726175 118.619247883 56.9780741457
588 33 2 32.9243216276 118.258772542 57.4237764327
589 33 2 32.0384458788 117.751745837 57.6015349472
590 33 2 31.2168181239 117.12824425 57.5034349217
591 33 2 30.5406550828 116.428960638 57.146705357
592 33 2 30.0779147558 115.701495184 56.5721486453
593 33 2 29.8771022328 114.996016775 55.8404215409
594 33 2 29.9628485848 114.360690233 55.0265064595