LAMMPS input file for bananas

648 atoms

2 atom types

0 67.4746132241 xlo xhi
0 67.4746132241 ylo yhi
0 67.4746132241 zlo zhi

Masses

 1 1
 2 1

Atoms

1 1 1 61.19460302 13.4537316244 25.5455124567
2 1 1 57.6342246012 12.0584420578 21.5814857834
3 1 2 61.5249270098 13.8824073459 25.4250801555
4 1 2 62.1822893438 14.5621007207 25.0024811147
5 1 2 62.8290393647 15.0399987928 24.349774355
6 1 2 63.3943322346 15.2840066822 23.5169464062
7 1 2 63.8147473764 15.2833469956 22.5704006099
8 1 2 64.0400688249 15.0495421114 21.5869049098
9 1 2 64.037862067 14.6153639947 20.6465949799
10 1 2 63.7964302261 14.0318472568 19.8256704074
11 1 2 63.3258801515 13.3636377003 19.1894496225
12 1 2 62.6572012488 12.6831002978 18.7864165719
13 1 2 61.8394410077 12.0637236203 18.6438017388
14 1 2 60.93523466 11.5734218583 18.7651002712
15 1 2 60.0150964073 11.2683449085 19.1297534237
16 1 2 59.150992535 11.187760696 19.6950223453
17 1 2 58.4097821792 11.3504761719 20.3998834333
18 1 2 57.8471235743 11.753123189 21.1705902161
19 2 1 16.3961429182 17.6359388654 38.3456057961
20 2 1 11.7939698716 16.8587784388 41.2700988884
21 2 2 16.5713355997 18.1611966249 38.317453317
22 2 2 16.6758843799 19.1851659333 38.2023243499
23 2 2 16.4803035349 20.1875837027 38.0302632571
24 2 2 15.9986310453 21.0833442459 37.8345519054
25 2 2 15.270980184 21.7970629505 37.6506277203
26 2 2 14.3598834656 22.2699470695 37.512853808
27 2 2 13.3445932373 22.4651542773 37.4513869936
28 2 2 12.3138583699 22.3711505951 37.4894292337
29 2 2 11.3578354076 22.0027616336 37.6411129164
30 2 2 10.5598714163 21.3998213407 37.9102127918
31 2 2 9.98890747067 20.62354141 38.2898019289
32 2 2 9.69319514738 19.7509322545 38.762883058
33 2 2 9.69589872494 18.8677840358 39.3039377554
34 2 2 9.99298391844 18.0608474788 39.8812522727
35 2 2 10.553585577 17.4099271379 40.4598080274
36 2 2 11.3228208307 16.9806077591 41.0044733068
37 3 1 19.6802240639 63.8382268506 55.2807350902
38 3 1 22.2969785981 60.2941593996 58.5866111521
39 3 2 19.1740442561 63.9882789484 55.4499896965
40 3 2 18.1961307578 64.0365629173 55.7877057301
41 3 2 17.2569520781 63.7815237724 56.1421019958
42 3 2 16.4446076006 63.2477621678 56.4997236821
43 3 2 15.8356366413 62.485282399 56.8468220024
44 3 2 15.488042414 61.5649348541 57.170607303
45 3 2 15.4360054357 60.5719584865 57.4604147517
46 3 2 15.6867682064 59.5982118689 57.708676365
47 3 2 16.219975105 58.7338009142 57.9116107772
48 3 2 16.9895276646 58.058866339 58.0695678862
49 3 2 17.9277861318 57.6362793873 58.1869969629
50 3 2 18.9517343663 57.5059115471 58.2720411302
51 3 2 19.9705461931 57.681000538 58.3357951737
52 3 2 20.8938635853 58.1469437836 58.3912943278
53 3 2 21.6400321794 58.8626293365 58.4523262033
54 3 2 22.1435435099 59.7641829499 58.5321741414
55 4 1 22.7925690569 48.3819287522 5.37567406117
56 4 1 20.3655263105 43.5666186167 6.4976752793
57 4 2 22.8028836709 48.7438675178 5.79552485649
58 4 2 22.5924639411 49.3707667874 6.59265666128
59 4 2 22.1041092945 49.8738863129 7.35494187902
60 4 2 21.3855721116 50.1959027529 8.02777766904
61 4 2 20.5055843333 50.2959990703 8.56471389271
62 4 2 19.547593015 50.1535847258 8.93168672514
63 4 2 18.6021547003 49.7701723643 9.11012333927
64 4 2 17.7586818125 49.1692399475 9.09863469171
65 4 2 17.0972933251 48.3940908991 8.91314212451
66 4 2 16.6815124671 47.5039072939 8.58542624404
67 4 2 16.552477016 46.5683558182 8.16023033654
68 4 2 16.7251898714 45.6612381285 7.69118232441
69 4 2 17.1871516435 44.8537643366 7.2359069487
70 4 2 17.8994998869 44.2080626964 6.85077366912
71 4 2 18.8005511461 43.7715170391 6.58575897418
72 4 2 19.8114229793 43.5724480622 6.47989136696
73 5 1 10.1619119114 31.1172081061 55.6451234745
74 5 1 9.00627623018 31.3214522168 61.0265197099
75 5 2 10.2465915527 31.6090475348 55.4036610832
76 5 2 10.2016735071 32.5840424322 55.0571562632
77 5 2 9.90527832538 33.5614613801 54.8853995524
78 5 2 9.39395597449 34.4615771514 54.9176380832
79 5 2 8.72384555928 35.2117081735 55.1645262201
80 5 2 7.96555862801 35.7528429556 55.6171544876
81 5 2 7.19774341381 36.0450185811 56.2478616081
82 5 2 6.4999165875 36.0709630536 57.0127556373
83 5 2 5.94521585815 35.8376695211 57.8557144142
84 5 2 5.59373397243 35.3757588984 58.7135007114
85 5 2 5.48704167266 34.7366889805 59.5215258746
86 5 2 5.64439880873 33.9880644176 60.2197366356
87 5 2 6.0609989348 33.2074750149 60.7580885561
88 5 2 6.70840738387 32.4754239532 61.1011072353
89 5 2 7.53715289277 31.8679904766 61.2311215578
90 5 2 8.48123656858 31.4498957906 61.1498742952
91 6 1 16.1179811226 38.5141242221 2.16717706032
92 6 1 13.5572934455 43.1687525791 3.62111942689
93 6 2 15.99727336 38.3278029114 1.65914678874
94 6 2 15.5494872253 38.0089806233 0.781343737215
95 6 2 14.8487563749 37.767344564 0.057958251294
96 6 2 13.9578680044 37.6411728035 -0.454971441119
97 6 2 12.9569408639 37.6582196323 -0.720588714799
98 6 2 11.9361229827 37.8331859486 -0.724577775884
99 6 2 10.9873752948 38.166379372 -0.476468448344
100 6 2 10.1960900302 38.643686206 -0.00876759585499
101 6 2 9.63330779869 39.2378578048 0.626003655948
102 6 2 9.34924272514 39.9109941007 1.36009685999
103 6 2 9.36870577641 40.6179979351 2.1167110542
104 6 2 9.68884341181 41.3106853555 2.81699264267
105 6 2 10.2793976637 41.9421772523 3.38722236027
106 6 2 11.085463944 42.4711720685 3.76553427828
107 6 2 12.0324952207 42.8657101531 3.90755445957
108 6 2 13.0330964688 43.1060866644 3.79044533879
109 7 1 11.257272786 30.3789552984 41.6982436743
110 7 1 6.91979485433 30.0399113217 38.3206751255
111 7 2 11.2647692262 30.8247192172 42.0278177687
112 7 2 11.2396591563 31.773422557 42.4425824352
113 7 2 11.1503483869 32.7976748683 42.567598675
114 7 2 10.9865461482 33.805853147 42.3960071365
115 7 2 10.7447510572 34.7077994265 41.9479822333
116 7 2 10.4285702447 35.4230380589 41.2688933852
117 7 2 10.04839059 35.8881105181 40.4251699062
118 7 2 9.62043202816 36.0623592094 39.4982464283
119 7 2 9.16526921387 35.931633131 38.5771406927
120 7 2 8.70595628306 35.5095776399 37.7503401937
121 7 2 8.26592562628 34.8363907722 37.0977371495
122 7 2 7.86685218701 33.9751594668 36.6833468748
123 7 2 7.52667793917 33.0061096241 36.5494732234
124 7 2 7.25797659919 32.0192940648 36.7128528822
125 7 2 7.06680761796 31.106384833 37.1631299371
126 7 2 6.95216390348 30.3523179176 37.863799743
127 8 1 40.2863828067 12.9419661625 5.50531501172
128 8 1 43.4616612459 16.1816234132 2.38139717376
129 8 2 39.7419893144 12.9814898053 5.40808148429
130 8 2 38.765178702 13.2861477807 5.24769814156
131 8 2 37.9184902026 13.8669496231 5.11173463214
132 8 2 37.2787071415 14.6728184191 4.99361863259
133 8 2 36.9037548321 15.6321639461 4.88515114129
134 8 2 36.8274210806 16.6594076294 4.77725376125
135 8 2 37.0562766587 17.6627824429 4.66079613376
136 8 2 37.5690764233 18.5526968445 4.52742810797
137 8 2 38.3186956655 19.2499004306 4.37034079988
138 8 2 39.2364252046 19.6927070672 4.18488717547
139 8 2 40.2382337588 19.8426171581 3.96900559596
140 8 2 41.2324268208 19.6878266192 3.72340772206
141 8 2 42.128003983 19.2443027396 3.45151365099
142 8 2 42.8429530009 18.5543288728 3.15914019802
143 8 2 43.3117246472 17.6826505991 2.8539707337
144 8 2 43.491207074 16.7105746097 2.54485489729
145 9 1 54.1286712374 57.4110574008 2.24209822011
146 9 1 58.2216945381 60.8860659288 3.47014989555
147 9 2 53.6669570292 57.6498466022 2.04927586978
148 9 2 52.8285243291 58.2334087082 1.87844218739
149 9 2 52.0946269703 58.9599433675 1.95743792514
150 9 2 51.5392925925 59.7771166093 2.26813052704
151 9 2 51.2202740444 60.6243333775 2.77126985646
152 9 2 51.1737856066 61.4382603543 3.410065577
153 9 2 51.4112023089 62.1585983585 4.11536320229
154 9 2 51.918023174 62.7335782019 4.81194705326
155 9 2 52.6551928823 63.1246790961 5.42539565167
156 9 2 53.5626613962 63.3101395582 5.88886472752
157 9 2 54.5648571099 63.2869408208 6.14917961605
158 9 2 55.5775746825 63.0710819721 6.17168176381
159 9 2 56.5156497779 62.6961217482 5.94338761821
160 9 2 57.3007212101 62.210119885 5.47417198932
161 9 2 57.868373028 61.6712568026 4.7958680286
162 9 2 58.1740055876 61.1425308585 3.95936585546
163 10 1 56.6631958449 9.82412638397 17.6965797357
164 10 1 54.1409292334 8.49428915776 22.4089399744
165 10 2 56.8197600832 10.3543376477 17.6548136409
166 10 2 56.8901782997 11.3875687407 17.6416586226
167 10 2 56.6722022884 12.3963453661 17.7285749592
168 10 2 56.1915495731 13.2924092302 17.925401761
169 10 2 55.4978788585 13.9977750344 18.2319605529
170 10 2 54.6602639791 14.4518383012 18.638071541
171 10 2 53.7608982934 14.616899056 19.1244814317
172 10 2 52.8876033225 14.4815979221 19.6646182367
173 10 2 52.1258244205 14.0619514493 20.2270131277
174 10 2 51.5508430165 13.3998923159 20.7781686048
175 10 2 51.2209152281 12.5594474519 21.2856115633
176 10 2 51.1719622163 11.6209024238 21.7208529951
177 10 2 51.4142962173 10.6734839554 22.0619845661
178 10 2 51.9316806535 9.80722752376 22.2956754108
179 10 2 52.6828099856 9.10477124272 22.4183871494
180 10 2 53.6050744297 8.63382396546 22.4366963866
181 11 1 10.608847128 21.5916933764 61.2174400266
182 11 1 5.80542749782 20.1979575438 63.5242333014
183 11 2 10.6365640186 22.1117022265 61.0271683224
184 11 2 10.4856530743 23.0268978644 60.5663634806
185 11 2 10.076130362 23.8038035035 60.0173579732
186 11 2 9.43566526805 24.3811195676 59.4435906888
187 11 2 8.61297599332 24.715737702 58.9107573823
188 11 2 7.67338922348 24.7866698041 58.4808229572
189 11 2 6.69288604943 24.5969609456 58.2063737892
190 11 2 5.75117681179 24.1734118345 58.1258248392
191 11 2 4.92443604982 23.5641361148 58.2599183924
192 11 2 4.27835971449 22.8341751375 58.6098335414
193 11 2 3.86217743291 22.0595698871 59.1570787202
194 11 2 3.7041655654 21.3204303679 59.8651770834
195 11 2 3.80907000905 20.6936341258 60.6829911207
196 11 2 4.15767364179 20.2458193871 61.5493834903
197 11 2 4.70854783128 20.0273114413 62.3987892686
198 11 2 5.40182837073 20.0675358361 63.167191743
199 12 1 23.9618700878 28.1646918935 61.7758914809
200 12 1 29.0869182586 26.1843761852 62.161722881
201 12 2 23.7083913435 28.2578768279 62.2600875629
202 12 2 23.3042352793 28.2123408177 63.2126014046
203 12 2 23.0344639225 27.891676611 64.1597530042
204 12 2 22.93798679 27.3318995905 65.0258015717
205 12 2 23.037918818 26.5908186323 65.7423983023
206 12 2 23.3394735945 25.7427672235 66.2548159015
207 12 2 23.8294881762 24.8718284743 66.5269366026
208 12 2 24.4776228007 24.0641715191 66.544544054
209 12 2 25.2391261479 23.4001977907 66.3166190415
210 12 2 26.0589141157 22.9472129808 65.8745209519
211 12 2 26.8765903586 22.7532925877 65.2691295793
212 12 2 27.6319510002 22.8429001643 64.5662077811
213 12 2 28.2704718041 23.2146576332 63.8404076444
214 12 2 28.7482776839 23.8414708884 63.1684664599
215 12 2 29.0361416166 24.6729992379 62.622212644
216 12 2 29.1221484856 25.6402436123 62.2620190714
217 13 1 33.8815437975 62.3903195707 24.8926274081
218 13 1 36.5082327791 64.5326894616 20.5512691907
219 13 2 34.1523055827 61.9834267098 25.1543658407
220 13 2 34.6799204024 61.1347332559 25.4264693033
221 13 2 35.2086068288 60.2446728997 25.395140469
222 13 2 35.7081713419 59.4006058019 25.062447964
223 13 2 36.1510746842 58.6857001533 24.4579276467
224 13 2 36.5149418756 58.1713519639 23.635890617
225 13 2 36.7846015393 57.9106778062 22.670473132
226 13 2 36.9534686686 57.9336736044 21.6488795939
227 13 2 37.0241448054 58.2444807106 20.6634344674
228 13 2 37.0081809273 58.8210084497 19.8031675369
229 13 2 36.9250246553 59.6169475328 19.1456994528
230 13 2 36.8002477363 60.5659908309 18.7501671409
231 13 2 36.663215354 61.587876816 18.6518338772
232 13 2 36.5444096934 62.5957048483 18.8588752823
233 13 2 36.4726516989 63.5038555741 19.3516341692
234 13 2 36.4724742425 64.2357945427 20.0844121614
235 14 1 39.4267774832 46.7713539144 48.9674154865
236 14 1 41.845277078 43.9291509896 53.018264431
237 14 2 39.6237702551 46.670691973 48.4590437986
238 14 2 40.2001243319 46.5210742668 47.6116189989
239 14 2 41.0027860907 46.4174092852 46.9653327283
240 14 2 41.9617437394 46.3503624647 46.5798418426
241 14 2 42.9927401871 46.3072617474 46.4910334864
242 14 2 44.0049525002 46.2732525522 46.7077542257
243 14 2 44.9092697904 46.2326516681 47.2110037443
244 14 2 45.6264150607 46.1703766715 47.9556665923
245 14 2 46.0941707608 46.0733205855 48.8746241497
246 14 2 46.2730494895 45.9315464909 49.884872029
247 14 2 46.1498930012 45.7391932085 50.8950853556
248 14 2 45.7390714896 45.4950095054 51.8139424042
249 14 2 45.0811738429 45.2024681359 52.5584479479
250 14 2 44.2393082449 44.8694493243 53.0614977041
251 14 2 43.2933502971 44.5075225361 53.2779944297
252 14 2 42.332662905 44.1308920009 53.1889582258
253 15 1 26.3608146498 44.2290634427 4.71540350074
254 15 1 24.6883053201 41.8439329948 0.0409516381602
255 15 2 26.8381727669 44.5087222443 4.67933503314
256 15 2 27.8076375187 44.8326912913 4.51236071591
257 15 2 28.7986703937 44.8802947542 4.21523107722
258 15 2 29.7194163176 44.6551904622 3.79779452827
259 15 2 30.48442639 44.1858916867 3.28086463027
260 15 2 31.0224459657 43.523168352 2.69432308107
261 15 2 31.2829090267 42.7354197048 2.07439620327
262 15 2 31.2405469287 41.902440192 1.46035316326
263 15 2 30.8976914642 41.1081467436 0.890926855962
264 15 2 30.284062336 40.4329303203 0.400783667018
265 15 2 29.4540584097 39.946328828 0.0173638693964
266 15 2 28.4817996305 39.7006892152 -0.241619369345
267 15 2 27.4543714979 39.7263964069 -0.36979442084
268 15 2 26.46388782 40.0291039273 -0.372711926154
269 15 2 25.5990951708 40.5892186199 -0.267338892909
270 15 2 24.9372842489 41.363686429 -0.0805122688647
271 16 1 34.1800506059 27.8333834601 16.7758978977
272 16 1 33.6012765484 29.8581080508 21.865312977
273 16 2 34.6458986004 27.9823628864 16.5148011185
274 16 2 35.4517663274 28.4772727286 16.0924982345
275 16 2 36.1202408806 29.212660656 15.8008740944
276 16 2 36.6030825542 30.1210250988 15.6807232374
277 16 2 36.8689708062 31.1190988639 15.7572115883
278 16 2 36.9063589119 32.1154383686 16.0375827565
279 16 2 36.7245263682 33.0187580961 16.5104978303
280 16 2 36.352733131 33.7462506445 17.1470688413
281 16 2 35.8375527713 34.2311340537 17.9034917042
282 16 2 35.238627613 34.4287385235 18.7250386593
283 16 2 34.6232327445 34.3205777592 19.5510463323
284 16 2 34.0601443551 33.916033871 20.3204447852
285 16 2 33.6133712573 33.2515022587 20.9773236221
286 16 2 33.3363209222 32.3870744207 21.4760278389
287 16 2 33.2669317547 31.4010610258 21.7853189632
288 16 2 33.424215268 30.3828544328 21.891222228
289 17 1 48.8434525747 53.2747149051 6.44920190693
290 17 1 44.8699472149 53.5780594468 10.2512897769
291 17 2 49.2836305579 53.5986853764 6.54229985779
292 17 2 49.9430350903 54.3711064693 6.74539980598
293 17 2 50.3400654818 55.2969561943 6.98595629868
294 17 2 50.4404089733 56.2904365615 7.26095850721
295 17 2 50.2367937828 57.2595855119 7.56425611208
296 17 2 49.7496518778 58.1146586283 7.88711986238
297 17 2 49.0252567425 58.7763087234 8.21903718723
298 17 2 48.1315058658 59.1828177925 8.54867034448
299 17 2 47.1517323518 59.2957221858 8.8648897782
300 17 2 46.1771096779 59.103318307 9.1577885014
301 17 2 45.2983418579 58.6217293155 9.41958504996
302 17 2 44.5973963927 57.8934356109 9.64533270973
303 17 2 44.140033495 56.9834030362 9.83337037563
304 17 2 43.9698124963 55.9731616861 9.98547394998
305 17 2 44.1041217126 54.9533749985 10.1066944812
306 17 2 44.5325936189 54.015576403 10.2048977952
307 18 1 19.5332550537 18.7785607995 20.4317436153
308 18 1 15.7011476659 16.4748026255 23.6479970523
309 18 2 19.578998415 19.3291957878 20.4774536376
310 18 2 19.4311748896 20.3528080011 20.5328116841
311 18 2 18.9908922769 21.2898654657 20.560610966
312 18 2 18.2957694973 22.0574803416 20.5770424797
313 18 2 17.4066524051 22.588208319 20.5993333157
314 18 2 16.4020681059 22.8361957046 20.6441765274
315 18 2 15.3710677501 22.7813586718 20.726209674
316 18 2 14.40511013 22.4312137633 20.8566807067
317 18 2 13.5897258389 21.8201928102 21.042422796
318 18 2 12.9967217431 21.0065047064 21.2852315341
319 18 2 12.6776362793 20.0668300671 21.5817012795
320 18 2 12.6590420783 19.0893323163 21.923535558
321 18 2 12.940124053 18.1656221955 22.2983032291
322 18 2 13.4927536871 17.3824080723 22.6905714993
323 18 2 14.2640527573 16.8135930676 23.0833125155
324 18 2 15.1812128201 16.5135392923 23.4594553372
325 19 1 59.663010941 52.2739565659 17.0055810036
326 19 1 55.989314798 55.0024674003 20.0708412214
327 19 2 59.7595012587 51.7513036715 17.1633920366
328 19 2 59.9690268026 50.87268569 17.6701738044
329 19 2 60.1849479881 50.1863790629 18.415196976
330 19 2 60.3701461139 49.7491875203 19.3356661392
331 19 2 60.4903026748 49.5952096605 20.3527951825
332 19 2 60.5170272584 49.7327310964 21.378988109
333 19 2 60.4304451364 50.1434692784 22.3258228111
334 19 2 60.2210087099 50.784239824 23.1121101391
335 19 2 59.8903677075 51.5908924776 23.6712937359
336 19 2 59.451218824 52.4841579671 23.9575161925
337 19 2 58.9261485035 53.3768728538 23.949798636
338 19 2 58.3455743402 54.181923883 23.6539528108
339 19 2 57.7449727228 54.8201877596 23.1020513775
340 19 2 57.1616454052 55.2277426936 22.3495047096
341 19 2 56.6313197074 55.3616944338 21.4700106183
342 19 2 56.184892215 55.2040857839 20.548837302
343 20 1 45.02220555 15.0024708546 7.93339262587
344 20 1 46.8113416061 19.2807931904 4.96159433345
345 20 2 45.4160046757 14.6478423386 8.09630860381
346 20 2 46.2130928647 13.9910546311 8.17362999295
347 20 2 47.0378900527 13.4043465275 7.95412721157
348 20 2 47.8295750458 12.953030498 7.46194128704
349 20 2 48.5303445997 12.6900789532 6.74606644566
350 20 2 49.090681789 12.6512961726 5.87588462488
351 20 2 49.4738691358 12.8520549895 4.93484178537
352 20 2 49.6593351553 13.2858956633 4.01284238383
353 20 2 49.6445293066 13.9251146399 3.19805519815
354 20 2 49.4451544561 14.723289541 2.56887734782
355 20 2 49.0937356695 15.6195102457 2.18678893394
356 20 2 48.6366557748 16.5439304302 2.09074954957
357 20 2 48.1299278856 17.4241335816 2.29364737991
358 20 2 47.6340901897 18.1917332664 2.78112453258
359 20 2 47.2086883085 18.7886060849 3.51288566108
360 20 2 46.906848122 19.1721892208 4.42637060934
361 21 1 65.2848241104 53.8721917823 9.84537081403
362 21 1 60.9030173192 50.7105486562 8.77746776856
363 21 2 65.1688290411 54.3729203652 10.0532091688
364 21 2 64.8035539544 55.3198838404 10.2594434017
365 21 2 64.2628001864 56.2024722976 10.2230944176
366 21 2 63.5812593799 56.9362957352 9.95908009485
367 21 2 62.8064549511 57.450523063 9.5030684464
368 21 2 61.994410656 57.6943378709 8.90822672516
369 21 2 61.204544409 57.6415699957 8.24037559333
370 21 2 60.4942527475 57.2930807527 7.57199002032
371 21 2 59.9136795311 56.6766844321 6.97559368617
372 21 2 59.5011456724 55.8446132175 6.51714894539
373 21 2 59.2796564485 54.8687565805 6.25004481055
374 21 2 59.2548047282 53.8341090481 6.21023090984
375 21 2 59.4142612198 52.8310235342 6.41294092495
376 21 2 59.7288982017 51.9469762913 6.8513041454
377 21 2 60.1554443145 51.2585940495 7.49697168669
378 21 2 60.6404284491 50.8246700157 8.30270029682
379 22 1 19.9453359198 50.435885582 24.5765230416
380 22 1 20.4649149262 51.4642403691 19.1905079084
381 22 2 19.9063077275 50.8849815128 24.8992774323
382 22 2 20.024543147 51.7928027953 25.3836111765
383 22 2 20.3718464853 52.7266797712 25.66636983
384 22 2 20.9058127817 53.6130102137 25.7110532961
385 22 2 21.567024027 54.3825254362 25.5028603989
386 22 2 22.284464707 54.9766036589 25.0500379093
387 22 2 22.9819943801 55.3526129815 24.3831289084
388 22 2 23.5852873567 55.4877969888 23.552188995
389 22 2 24.0286069756 55.3813488421 22.6222240609
390 22 2 24.2607970507 55.0544848168 21.6672654498
391 22 2 24.2499444062 54.5485105845 20.7636225073
392 22 2 23.9862875436 53.9210564841 19.9829275081
393 22 2 23.4831063361 53.2408249116 19.3856068646
394 22 2 22.7755116583 52.5813285677 19.0153736738
395 22 2 21.9172452715 52.0141902794 18.8952435685
396 22 2 20.9757816299 51.6026150699 19.0254369999
397 23 1 36.0724475604 11.3712556958 21.7579488374
398 23 1 33.9694251591 8.91310745701 26.2156880562
399 23 2 35.8450177699 11.8602665849 21.6294000435
400 23 2 35.2181575078 12.6549806945 21.4099143561
401 23 2 34.3775993912 13.238404149 21.2493609496
402 23 2 33.397194852 13.5649663436 21.1796304421
403 23 2 32.363541365 13.6125078162 21.224335567
404 23 2 31.3680896813 13.3842999305 21.3966590345
405 23 2 30.4988087196 12.9087467138 21.6981520176
406 23 2 29.8321678026 12.2367960242 22.1185927739
407 23 2 29.4261670018 11.4372960031 22.6369182867
408 23 2 29.3150508293 10.5907200392 23.223144015
409 23 2 29.5061870852 9.78183217012 23.8410967786
410 23 2 29.9793953329 9.09196142247 24.4517116957
411 23 2 30.6887862076 8.59158922806 25.0165926787
412 23 2 31.5669439175 8.33392552479 25.5015119748
413 23 2 32.5310707307 8.35005903566 25.8795297904
414 23 2 33.4905334211 8.64612374477 26.1334496692
415 24 1 9.87326911527 37.1840997598 62.2067424852
416 24 1 8.44383022828 33.4183385335 65.9633875019
417 24 2 9.74762572775 37.7077385868 62.3386396789
418 24 2 9.30016490391 38.5955814917 62.6288328187
419 24 2 8.61612788986 39.2952929138 62.9682375333
420 24 2 7.76155692173 39.7433404692 63.3446151624
421 24 2 6.81803723635 39.89912921 63.7423572178
422 24 2 5.87526113629 39.7487015755 64.1439079904
423 24 2 5.02285315141 39.3060095282 64.5313646328
424 24 2 4.34220137747 38.6116429282 64.8881088807
425 24 2 3.89903950916 37.7291300451 65.2003216941
426 24 2 3.73745566452 36.7391473928 65.458242768
427 24 2 3.87587405529 35.7321666175 65.6570601171
428 24 2 4.30537574627 34.8002086278 65.7973486554
429 24 2 4.99051155516 34.0284565199 65.8850177969
430 24 2 5.87253300247 33.4874917221 65.9307728527
431 24 2 6.87474683262 33.2268609818 65.9491393154
432 24 2 7.90950507841 33.270560519 65.9571389602
433 25 1 45.3415779642 64.6021661928 28.7932401246
434 25 1 49.47226014 60.9954503398 28.277778734
435 25 2 44.839048179 64.4040271008 28.6683983573
436 25 2 44.0074493655 63.9603710073 28.2390838395
437 25 2 43.3822640384 63.4421955629 27.5961718808
438 25 2 43.021440328 62.8790663869 26.8053558135
439 25 2 42.9588316158 62.3046463234 25.9458094152
440 25 2 43.2011110309 61.753627303 25.102970762
441 25 2 43.7271632398 61.2585684122 24.3607551335
442 25 2 44.4900089645 60.8469283549 23.7939067106
443 25 2 45.4210868216 60.5385627805 23.4611861556
444 25 2 46.436502222 60.3439145773 23.400014981
445 25 2 47.444673788 60.2630620748 23.623064835
446 25 2 48.3546803677 60.2857119046 24.1171025676
447 25 2 49.0845478746 60.3921371705 24.8441963417
448 25 2 49.5687206636 60.5549754195 25.7451728598
449 25 2 49.7640364787 60.7417225419 26.7450106045
450 25 2 49.6536603966 60.9176952983 27.7596775353
451 26 1 51.6527549948 35.5056063241 23.1468376124
452 26 1 52.8948241733 34.8666794094 28.4746581312
453 26 2 51.2481403637 35.8696882194 23.0414235458
454 26 2 50.3762430154 36.4277430638 23.0087421166
455 26 2 49.4271080919 36.7943422871 23.2022522652
456 26 2 48.4909198052 36.9497092603 23.6171147321
457 26 2 47.6566823698 36.8933197257 24.2283155116
458 26 2 47.0041078794 36.6439495794 24.992945707
459 26 2 46.5963510957 36.2379635773 25.8541123822
460 26 2 46.4742533248 35.7260009366 26.7461239629
461 26 2 46.6526200124 35.1683599187 27.6004775729
462 26 2 47.1188713288 34.6295020558 28.3521026022
463 26 2 47.8341887341 34.1721769243 28.9452914464
464 26 2 48.7370530221 33.8517029512 29.338776873
465 26 2 49.7488513742 33.7109255186 29.5094932472
466 26 2 50.7810423783 33.776311901 29.4546788057
467 26 2 51.7432259724 34.0555389547 29.1921273728
468 26 2 52.5513827896 34.5367934247 28.7585665754
469 27 1 23.1422417878 55.6485372004 51.3793047317
470 27 1 27.7116715366 53.5341630771 49.1462868713
471 27 2 22.7286273247 55.2873304604 51.4556822057
472 27 2 21.9978152765 54.5580592842 51.3733683374
473 27 2 21.3878951685 53.8035709683 51.0108174937
474 27 2 20.9639427466 53.0770408321 50.4065687236
475 27 2 20.7740840768 52.4290959987 49.6211901847
476 27 2 20.8451091847 51.9032010794 48.7317587714
477 27 2 21.1800303283 51.5316966728 47.8248350841
478 27 2 21.7578074511 51.3328517409 46.9885740241
479 27 2 22.5352658392 51.3091985181 46.3046900787
480 27 2 23.4510312005 51.4473017158 45.8410096058
481 27 2 24.4311235104 51.7189830566 45.6452889266
482 27 2 25.395699784 52.0838895313 45.7408616644
483 27 2 26.2663312168 52.4931712989 46.1245120445
484 27 2 26.9731514323 52.8939340145 46.7667679903
485 27 2 27.4612243235 53.2340597866 47.6145873007
486 27 2 27.6955511022 53.4669573652 48.5961920835
487 28 1 60.5994376274 57.5881651165 42.4849734543
488 28 1 56.0515505459 54.4825497915 42.3927157996
489 28 2 60.8360926704 57.644374262 42.9831859333
490 28 2 61.0601035734 57.8062649994 43.9813386148
491 28 2 60.9816462458 58.0141534827 44.9929339377
492 28 2 60.6055465937 58.2316581767 45.933114256
493 28 2 59.9637585805 58.4215210948 46.7235309116
494 28 2 59.1124518418 58.5490036083 47.2994851776
495 28 2 58.1268922088 58.5850526352 47.6158251034
496 28 2 57.0945817437 58.5089486285 47.6510608058
497 28 2 56.107283526 58.3101940216 47.409323124
498 28 2 55.2526580781 57.989470009 46.9199871223
499 28 2 54.6062737085 57.5585744604 46.2349947544
500 28 2 54.2247189795 57.0393466256 45.4241207103
501 28 2 54.1404450472 56.4616766366 44.5686129317
502 28 2 54.3588079613 55.8607812274 43.7537874191
503 28 2 54.8575804978 55.2739939693 43.0612522635
504 28 2 55.5889780183 54.7373625728 42.5614696283
505 29 1 30.2503388817 13.9380424262 32.3472780436
506 29 1 27.3960527775 12.5867325805 27.8346682153
507 29 2 30.6594363445 13.5884037495 32.4805927589
508 29 2 31.255940415 12.7720854725 32.7053273485
509 29 2 31.5930747101 11.8060583411 32.8660454856
510 29 2 31.6469943075 10.7737882897 32.9309260604
511 29 2 31.4196673634 9.76477884063 32.8768828995
512 29 2 30.9386957275 8.86641347194 32.6916689128
513 29 2 30.2547992244 8.15599121227 32.3749923315
514 29 2 29.437192889 7.69368136444 31.9385433012
515 29 2 28.5672784908 7.51703948604 31.4049284048
516 29 2 27.7312253204 7.63758445779 30.805610228
517 29 2 27.0121164497 8.03974861656 30.1780397597
518 29 2 26.4823762796 8.68229664116 29.5622429919
519 29 2 26.1971695521 9.5020838691 28.997172824
520 29 2 26.1893734626 10.4198114997 28.5171587741
521 29 2 26.4665811286 11.347254136 28.148778078
522 29 2 27.0104095296 12.195300925 27.9084333567
523 30 1 42.8319188488 38.2360581713 8.69451392889
524 30 1 47.2327094131 41.486286835 9.33145267751
525 30 2 42.5920526039 38.0694912171 9.16578920508
526 30 2 42.3635939732 37.6982417915 10.1052990715
527 30 2 42.4392150955 37.2921548506 11.0550743678
528 30 2 42.8134534162 36.9038977421 11.9393256715
529 30 2 43.4536294705 36.5845127468 12.6882356229
530 30 2 44.3028253923 36.3787649243 13.2443222987
531 30 2 45.2850725878 36.3210620855 13.5676782952
532 30 2 46.3122757517 36.4323187555 13.6396080142
533 30 2 47.2922421505 36.718049959 13.4643316392
534 30 2 48.137084358 37.167868563 13.0686004942
535 30 2 48.7712305914 37.756431993 12.499258844
536 30 2 49.1383125616 38.4457520347 11.8189743607
537 30 2 49.2063030561 39.1886571997 11.1005263949
538 30 2 48.9704349996 39.9330920828 10.420172637
539 30 2 48.4536359405 40.6268618556 9.85069875171
540 30 2 47.7044383622 41.222389467 9.45478446334
541 31 1 13.8592464826 26.8603282584 49.4475898806
542 31 1 10.0886396606 29.7092337616 52.2765290024
543 31 2 14.2882154721 26.6760001559 49.7465706631
544 31 2 15.0992026796 26.554711444 50.3792531022
545 31 2 15.8503660898 26.7279070974 51.070957568
546 31 2 16.4647016801 27.1748018711 51.7749285296
547 31 2 16.8776763454 27.849664722 52.4432924494
548 31 2 17.0431096486 28.6859868797 53.0314211275
549 31 2 16.9373828505 29.6025436648 53.5019992559
550 31 2 16.561591596 30.5107975618 53.8284254536
551 31 2 15.9414460535 31.3229678068 53.9972367995
552 31 2 15.1249276097 31.9600310015 54.0093358859
553 31 2 14.1779156946 32.3589235551 53.8799085529
554 31 2 13.1781833238 32.4782894977 53.6370398034
555 31 2 12.2083086205 32.3022497934 53.3191540478
556 31 2 11.3481483867 31.8418496058 52.9715129821
557 31 2 10.6675597024 31.1340516071 52.642090295
558 31 2 10.2200329321 30.2383670834 52.3771991947
559 32 1 58.5258554056 43.3936045657 31.4640855841
560 32 1 55.8330270144 45.080658408 35.9628809246
561 32 2 58.3579130609 43.6243644828 30.9887688674
562 32 2 57.8306926246 43.9920293732 30.1766362361
563 32 2 57.0663167863 44.2631527465 29.5324934216
564 32 2 56.1310103562 44.4309603021 29.1204973328
565 32 2 55.1065772957 44.4980942678 28.9836462963
566 32 2 54.0829448475 44.476372579 29.1398610534
567 32 2 53.1499672841 44.3857117547 29.5803514078
568 32 2 52.3892363068 44.2523116435 30.2704173913
569 32 2 51.8666445214 44.106267487 31.1526119283
570 32 2 51.6263797791 43.9788269447 32.1519767431
571 32 2 51.6868977569 43.8995420844 33.182874292
572 32 2 52.0392398489 43.8935759136 34.1567930392
573 32 2 52.6478496821 43.9794089438 34.9904146757
574 32 2 53.4538138358 44.1671548188 35.6132080126
575 32 2 54.3802313961 44.4576385254 35.9738574148
576 32 2 55.3392229469 44.8423212014 36.0449398695
577 33 1 51.6756724498 39.1210890896 14.4518201057
578 33 1 47.0534142269 36.2066894361 15.1429340671
579 33 2 51.9141755364 39.2987453297 14.9197253201
580 33 2 52.1431631358 39.708210101 15.8430895773
581 33 2 52.0709072284 40.1727713096 16.7659439745
582 33 2 51.7012527856 40.6352099308 17.6157700659
583 33 2 51.0651506162 41.0385003997 18.3267054349
584 33 2 50.2178364125 41.3310080993 18.8455466022
585 33 2 49.2337963956 41.471195503 19.1365981579
586 33 2 48.1999784071 41.4314080346 19.1849261534
587 33 2 47.2078672095 41.2003945936 18.9977192285
588 33 2 46.3451462772 40.7843330159 18.6036334162
589 33 2 45.6877060489 40.2062670062 18.0501803416
590 33 2 45.2927270347 39.5040058627 17.3993968631
591 33 2 45.1934682046 38.7266784184 16.7221908384
592 33 2 45.3962356611 37.9302552848 16.0918783587
593 33 2 45.8798078815 37.1724475149 15.5775014904