LAMMPS input file for bananas

4320 atoms

2 atom types

0 80.0 xlo xhi
0 80.0 ylo yhi
0 80.0 zlo zhi

Masses

 1 1
 2 1

Atoms

1 1 1 21.5230483202 18.868815211 3.81459665375
2 1 1 18.647757769 16.5584693143 7.92713809973
3 1 2 21.3742570757 19.3877547913 3.68832525716
4 1 2 20.8798388429 20.2654178377 3.44602750814
5 1 2 20.1416707384 20.9594852183 3.22962895935
6 1 2 19.2233543308 21.4140314486 3.07622520732
7 1 2 18.2049112247 21.5949627569 3.01717004121
8 1 2 17.175489306 21.4931246401 3.07521762876
9 1 2 16.2252371498 21.1251362727 3.2624485347
10 1 2 15.4370872189 20.5318757129 3.57916860956
11 1 2 14.8791967916 19.7747539774 4.01388111223
12 1 2 14.5987356081 18.9301175909 4.54433460714
13 1 2 14.6175864741 18.0822898047 5.13955112321
14 1 2 14.9303507024 17.3158847577 5.76264971305
15 1 2 15.504840188 16.7080951237 6.37420805278
16 1 2 16.2850112685 16.3216562056 6.93585568147
17 1 2 17.1960729539 16.19912778 7.4137713661
18 1 2 18.1513039251 16.3590148878 7.78176581657
19 2 1 17.1987066682 6.44282910014 72.4098756762
20 2 1 18.273444537 5.42840357643 67.0869187507
21 2 2 17.1095561312 5.99212171126 72.7201926423
22 2 2 16.7921972396 5.09424404361 73.1282968435
23 2 2 16.3157687881 4.18596416357 73.2749038055
24 2 2 15.7364868608 3.33772444852 73.1393610235
25 2 2 15.1199423613 2.61449477528 72.7267331875
26 2 2 14.5351225769 2.06985068949 72.0673405497
27 2 2 14.0481231719 1.7410901378 71.2139953145
28 2 2 13.7161237446 1.64583385974 70.2371879472
29 2 2 13.5821760595 1.7804193044 69.2186621562
30 2 2 13.6712799943 2.12023446216 68.2439641729
31 2 2 13.9881048675 2.62196118356 67.3946454413
32 2 2 14.5165638428 3.2275235129 66.7408294214
33 2 2 15.2212802012 3.86938115631 66.3348200238
34 2 2 16.0508118343 4.47668559909 66.2063342477
35 2 2 16.942340055 4.98173775839 66.3597935561
36 2 2 17.8273953528 5.32615857372 66.7739208709
37 3 1 17.3860101457 24.35731397 24.3114202119
38 3 1 20.0220446687 22.2847315986 19.9212362331
39 3 2 17.2542856408 23.9860429916 24.7015331488
40 3 2 16.9183967392 23.1729179074 25.2487591115
41 3 2 16.5062193803 22.2608130488 25.5163867686
42 3 2 16.0707463642 21.3214091188 25.4798693781
43 3 2 15.667093828 20.4288750579 25.1423822059
44 3 2 15.347477557 19.6531077432 24.5345331096
45 3 2 15.1564536558 19.053361075 23.711572713
46 3 2 15.1268573778 18.672845142 22.7483584605
47 3 2 15.2768102803 18.5347877376 21.7325315602
48 3 2 15.6080684926 18.6403172081 20.7565287227
49 3 2 16.1058626495 18.9683596074 19.9091568016
50 3 2 16.7402440797 19.4775595306 19.2674982861
51 3 2 17.468814547 20.1100495485 18.8898854387
52 3 2 18.2405907361 20.7967246697 18.8105834647
53 3 2 19.0006512458 21.463541075 19.0366673305
54 3 2 19.6951425275 22.0382650145 19.5473768999
55 4 1 32.8649813784 52.3765930671 38.443314724
56 4 1 31.5431054855 48.9545927295 42.5737564528
57 4 2 32.9039061856 52.9109131676 38.5860328992
58 4 2 32.7656180844 53.8712647673 38.9494214203
59 4 2 32.3718617901 54.7040909023 39.4235591859
60 4 2 31.7666499367 55.3322954429 39.9826009365
61 4 2 31.0132687674 55.697432971 40.5929626411
62 4 2 30.1885097623 55.7650359234 41.2163825922
63 4 2 29.3756703004 55.5277562184 41.813408858
64 4 2 28.6569613265 55.0060350133 42.3469952205
65 4 2 28.1060140428 54.2462395484 42.7858778394
66 4 2 27.7811686218 53.3164368961 43.1074248675
67 4 2 27.7201566556 52.3001898295 43.2996992831
68 4 2 27.936662022 51.2889402993 43.3625469175
69 4 2 28.4190736359 50.3736747439 43.3076105074
70 4 2 29.1315437681 49.6366309191 43.1572684902
71 4 2 30.0172554706 49.1438021461 42.9425952693
72 4 2 31.0036012892 48.938922197 42.7005288656
73 5 1 56.7453640712 34.5700111739 24.286326146
74 5 1 52.9210083367 32.2508005742 27.5287876295
75 5 2 56.6681133355 35.10919214 24.1828959876
76 5 2 56.3062905522 36.0472897499 23.9328816699
77 5 2 55.6862852158 36.8253829609 23.6437202117
78 5 2 54.8581185975 37.3788791956 23.3587079633
79 5 2 53.8907853132 37.6636572906 23.1207630856
80 5 2 52.8659646481 37.6600890225 22.9685136746
81 5 2 51.8705757089 37.3748281686 22.9327769132
82 5 2 50.9888549789 36.8402040322 23.0337501681
83 5 2 50.294678388 36.1112747134 23.2791700531
84 5 2 49.8448277191 35.2608087103 23.6636072579
85 5 2 49.6738151002 34.3726522651 24.1689614151
86 5 2 49.7907373166 33.5340870028 24.7661109
87 5 2 50.1784466627 32.8278744448 25.4175671895
88 5 2 50.7951139098 32.3247125173 26.0808918402
89 5 2 51.5780409286 32.0767916241 26.7125646393
90 5 2 52.4493754559 32.1130376309 27.2719503556
91 6 1 38.2077321035 46.0253495377 74.0002095517
92 6 1 40.9541818935 45.8655036363 78.7907683814
93 6 2 37.7875267756 45.6659434279 73.9597581162
94 6 2 37.1637415108 44.8387060879 73.9552483566
95 6 2 36.7930984972 43.8766889131 74.0581887426
96 6 2 36.7021010497 42.8680739332 74.2769701355
97 6 2 36.8917635373 41.905290443 74.6094247986
98 6 2 37.3375189259 41.0765903198 75.0430239804
99 6 2 37.9914579983 40.4580041003 75.556019877
100 6 2 38.7866961506 40.1064110004 76.1194278859
101 6 2 39.6434697455 40.0543545268 76.6996684754
102 6 2 40.4764063548 40.3070762234 77.2616278692
103 6 2 41.2023062275 40.8420379182 77.7718585729
104 6 2 41.7477257253 41.610976018 78.2016280242
105 6 2 42.0556715136 42.5443006055 78.5295374886
106 6 2 42.0907953518 43.5574383746 78.7434724975
107 6 2 41.8426159906 44.5585412608 78.841707049
108 6 2 41.3264745104 45.4568581471 78.8330609288
109 7 1 7.70929354609 72.8695185253 75.6233747867
110 7 1 10.3525716009 68.4057078308 77.5221813251
111 7 2 7.34434278265 73.0925537356 75.9761464172
112 7 2 6.58346892785 73.2883204075 76.6515695427
113 7 2 5.78912842015 73.1802641293 77.307920828
114 7 2 5.04279521117 72.7761793539 77.9021869693
115 7 2 4.42156751553 72.1108427406 78.3970135575
116 7 2 3.99114051469 71.2428433555 78.7641098331
117 7 2 3.79981841676 70.2492424345 78.9868273132
118 7 2 3.87411165702 69.2185494581 79.0616772563
119 7 2 4.21632054259 68.2426547482 78.9986486516
120 7 2 4.80432558559 67.4084539114 78.8202977493
121 7 2 5.59360363537 66.7899275362 78.5596921189
122 7 2 6.52128604465 66.4413980607 78.2573966287
123 7 2 7.5118889787 66.3925784271 77.957776066
124 7 2 8.48419356515 66.6458638264 77.7049514058
125 7 2 9.35864877708 67.1761133836 77.5387783015
126 7 2 10.0646222966 67.9329416808 77.4912143489
127 8 1 61.1495137296 58.8867844985 52.0014860422
128 8 1 65.2603660079 59.0870199895 55.6864270668
129 8 2 60.7538845195 58.514694353 52.1128774234
130 8 2 60.1968033733 57.6725941977 52.3452089455
131 8 2 59.9194128598 56.7090993393 52.6063261071
132 8 2 59.9456245282 55.7134016439 52.8915436714
133 8 2 60.2716774003 54.7776281801 53.1939797146
134 8 2 60.8664807735 53.9884440829 53.5051828943
135 8 2 61.6744480556 53.4191532584 53.8159027673
136 8 2 62.6205633335 53.1230169286 54.1169329423
137 8 2 63.6172188737 53.1283990134 54.3999502181
138 8 2 64.572200333 53.436180835 54.6582732214
139 8 2 65.3970918489 54.0196807879 54.8874713954
140 8 2 66.01533491 54.827086296 55.0857688339
141 8 2 66.3692064589 55.7861763901 55.2542061503
142 8 2 66.4250801951 56.8109044564 55.3965456279
143 8 2 66.1764915221 57.8092411555 55.5189282986
144 8 2 65.6447267785 58.6915626505 55.6293142037
145 9 1 60.3624171679 70.8879740805 53.6796107766
146 9 1 59.5774927168 65.5001493968 54.6140784572
147 9 2 60.363982981 71.2060142021 54.1337358886
148 9 2 60.1658389386 71.6876665692 55.029392043
149 9 2 59.7308307623 71.9751865397 55.9246853828
150 9 2 59.1077943896 72.0311357821 56.7506063062
151 9 2 58.3627040253 71.8391830176 57.4444683217
152 9 2 57.5726587697 71.405592573 57.9556217542
153 9 2 56.818855241 70.7586534038 58.2500703278
154 9 2 56.1791867208 69.9461006313 58.3135698352
155 9 2 55.7211433901 69.0307646143 58.1529264592
156 9 2 55.4956607789 68.0848441295 57.7953764072
157 9 2 55.5324771295 67.1833256461 57.2861034041
158 9 2 55.8374228347 66.3971485097 56.6841203161
159 9 2 56.3918890135 65.7867390102 56.0568902859
160 9 2 57.1545236603 65.3965026874 55.4741776475
161 9 2 58.0650007703 65.2507768842 55.0016890936
162 9 2 59.0495188933 65.3516124635 54.6950846861
163 10 1 17.0986705639 9.1104397157 56.3736242006
164 10 1 15.7404014077 14.3392411507 57.528064114
165 10 2 16.7954374385 8.87292359064 55.9748544049
166 10 2 16.0477308371 8.50860243687 55.3570721242
167 10 2 15.1235103866 8.28885372014 54.9435783858
168 10 2 14.1046838986 8.24826578978 54.7597436278
169 10 2 13.0817822717 8.40509696828 54.8100054859
170 10 2 12.1457078429 8.75961135403 55.0774643149
171 10 2 11.3794488821 9.29405474944 55.5254235466
172 10 2 10.8505154329 9.97427290858 56.100734483
173 10 2 10.6047859533 10.7528246054 56.7386406589
174 10 2 10.6623256159 11.5733057749 57.3686802204
175 10 2 11.015557422 12.3754905924 57.9211083342
176 10 2 11.629952824 13.100820897 58.3332542433
177 10 2 12.4471789108 13.6977436112 58.5552335385
178 10 2 13.3904152963 14.1264096663 58.5544949893
179 10 2 14.3713560926 14.362306138 58.3187875014
180 10 2 15.2982587556 14.3984905347 57.8572767713
181 11 1 46.0762718442 63.0308671912 17.8185546827
182 11 1 50.9973450673 63.2238696733 20.3213090525
183 11 2 46.0922639183 62.8910263196 17.2822987995
184 11 2 46.2857497915 62.7983398967 16.2686803037
185 11 2 46.687325242 62.9203337842 15.3214186396
186 11 2 47.2742044248 63.2325385234 14.5267167856
187 11 2 48.0067115551 63.6931474449 13.956872301
188 11 2 48.8318972499 64.2468272347 13.6636875969
189 11 2 49.6883647226 64.8297614178 13.6737482849
190 11 2 50.5118659364 65.3754670597 13.9859999695
191 11 2 51.2411576407 65.8208545076 14.5718443536
192 11 2 51.82358353 66.1119778442 15.377745897
193 11 2 52.2198737251 66.2089519136 16.3301114373
194 11 2 52.4077241181 66.0895877466 17.3419980103
195 11 2 52.3838293319 65.751415026 18.3210374689
196 11 2 52.1641839963 65.2119072497 19.1778555925
197 11 2 51.7826248807 64.5068890674 19.8342183087
198 11 2 51.2877467628 63.6872709603 20.2301625196
199 12 1 55.2130393295 34.1287549098 5.70544715641
200 12 1 56.6135503838 36.3976944958 0.867216797784
201 12 2 55.6384597059 33.9403564831 6.00695192286
202 12 2 56.4930292195 33.4805635261 6.36992767188
203 12 2 57.3674430123 32.9294178739 6.44126490039
204 12 2 58.1953558201 32.3505690452 6.21116833953
205 12 2 58.9146608189 31.8101916288 5.69731760471
206 12 2 59.4731504965 31.3709536473 4.94325574588
207 12 2 59.833275227 31.0863045342 4.01442041491
208 12 2 59.9755658195 30.9956033606 2.99217939853
209 12 2 59.9004080827 31.1205313615 1.96641416206
210 12 2 59.628007659 31.4631157489 1.02732739403
211 12 2 59.1965483347 32.0055449368 0.257221272265
212 12 2 58.6587116898 32.7117920199 -0.277004159674
213 12 2 58.0768753126 33.5308985296 -0.529948752655
214 12 2 57.5174272496 34.4016191622 -0.481850354216
215 12 2 57.0447149121 35.2580041247 -0.140386075946
216 12 2 56.7151799821 36.0354102818 0.460027454715
217 13 1 0.240976242156 18.637787437 40.5270785809
218 13 1 2.80320127325 15.6487912987 36.6516565347
219 13 2 0.381091638626 19.1740761668 40.53906449
220 13 2 0.862285860671 20.0913084979 40.5632922163
221 13 2 1.5905363811 20.8282090811 40.5721647117
222 13 2 2.50121550202 21.3216027963 40.5461610267
223 13 2 3.51306764622 21.5305095238 40.4689390823
224 13 2 4.5356155858 21.439879372 40.328825207
225 13 2 5.47740719971 21.0619644358 40.1198781609
226 13 2 6.25435109014 20.4352020499 39.8424306632
227 13 2 6.79738128869 19.6207113292 39.5030590667
228 13 2 7.05875243475 18.6967223244 39.1139839399
229 13 2 7.01639163756 17.7514455623 38.6919561955
230 13 2 6.67591036118 16.8750318918 38.256730289
231 13 2 6.07009295453 16.1513554749 37.8292636533
232 13 2 5.25590844563 15.6503688814 37.4298064844
233 13 2 4.30931796695 15.4217270989 37.0760559902
234 13 2 3.31835110123 15.4902616131 36.7815433375
235 14 1 51.4800081685 14.7959445868 68.0682455687
236 14 1 48.6679723577 11.4657850371 71.4624292752
237 14 2 51.4305196608 15.3371269421 68.1780368889
238 14 2 51.1078378217 16.3000369624 68.383294616
239 14 2 50.5127500755 17.1229929464 68.5883897985
240 14 2 49.6994388728 17.7310756351 68.793841356
241 14 2 48.7419771492 18.0689508962 69.0001357258
242 14 2 47.7275767749 18.105913282 69.207682525
243 14 2 46.748639426 17.8386847494 69.4167772151
244 14 2 45.8943344184 17.2917134444 69.6275741714
245 14 2 45.2424711636 16.514945319 69.8400726123
246 14 2 44.852407048 15.579271691 70.0541166705
247 14 2 44.7596371665 14.5700676903 70.2694095996
248 14 2 44.9725590389 13.5794105438 70.4855408222
249 14 2 45.4717071989 12.6976869818 70.7020233523
250 14 2 46.2115274189 12.00535473 70.9183381837
251 14 2 47.1245288566 11.5656090021 71.133981595
252 14 2 48.1274356641 11.4186224253 71.3485110632
253 15 1 76.4300423575 9.95611411144 41.4037794907
254 15 1 76.7459849222 15.1240895268 39.4775911656
255 15 2 75.9191527714 9.78764957751 41.5379179254
256 15 2 74.9585268828 9.67468195717 41.9092482771
257 15 2 74.058476137 9.83910066243 42.3953811349
258 15 2 73.2905010363 10.2739737455 42.9381054273
259 15 2 72.7140637411 10.9477180649 43.4740519245
260 15 2 72.3711682525 11.8069780045 43.9404691748
261 15 2 72.2825318605 12.7814886951 44.2809431314
262 15 2 72.4456968177 13.7904804696 44.4505391423
263 15 2 72.8352543568 14.7500408023 44.4198976233
264 15 2 73.405160632 15.5807627114 44.177910106
265 15 2 74.0929334918 16.2149824929 43.7327317448
266 15 2 74.8253475609 16.6029470865 43.1110379966
267 15 2 75.525108537 16.7173489343 42.3555932238
268 15 2 76.1178983599 16.5558149914 41.5213528374
269 15 2 76.539149104 16.1411230225 40.6704542578
270 15 2 76.7399281725 15.5191254702 39.8665532554
271 16 1 24.7511135151 4.23829402511 69.8832294625
272 16 1 29.885971327 4.27148414113 71.9204149546
273 16 2 24.7172499054 4.3063772693 69.3340486946
274 16 2 24.7939568241 4.61811413974 68.348966879
275 16 2 25.0586733262 5.13538049424 67.4911727876
276 16 2 25.5024375132 5.80094626196 66.8327310162
277 16 2 26.0999677691 6.54406427689 66.4275357295
278 16 2 26.8119671114 7.286918693 66.306398352
279 16 2 27.5887050064 7.95171769055 66.4742391888
280 16 2 28.3745501743 8.46778399261 66.9096389535
281 16 2 29.1130412319 8.7779969099 67.5667910782
282 16 2 29.7520329964 8.84399873896 68.3796768603
283 16 2 30.2484493797 8.64969096433 69.2680828904
284 16 2 30.5722096585 8.20270159513 70.1449122904
285 16 2 30.7089702522 7.53368989253 70.9241233613
286 16 2 30.6614321016 6.69355185992 71.5285720536
287 16 2 30.4490944853 5.74878120831 71.8970434415
288 16 2 30.1064777129 4.7754086323 71.9898313001
289 17 1 24.8782099051 63.5319593504 69.3403984259
290 17 1 22.5614740964 59.7373394131 72.6193595092
291 17 2 24.8338439834 64.0545179385 69.5202477379
292 17 2 24.5233273531 64.9758315844 69.878312815
293 17 2 23.9447870239 65.7498062464 70.2520832274
294 17 2 23.1532686331 66.3037078737 70.6264381867
295 17 2 22.2232301994 66.5848614844 70.9862036245
296 17 2 21.2417554732 66.5654523493 71.3175352686
297 17 2 20.3006164852 66.2450612302 71.6091805107
298 17 2 19.4879087715 65.6507025923 71.8535040522
299 17 2 18.8800217011 64.8343623078 72.0471838411
300 17 2 18.5346757883 63.8682592827 72.1915138678
301 17 2 18.485661623 62.8382628966 72.292286222
302 17 2 18.7397599482 61.8360662381 72.3592631585
303 17 2 19.2761236134 60.950828525 72.4052872943
304 17 2 20.048177737 60.2610484797 72.445111038
305 17 2 20.987864882 59.8274093809 72.4940519476
306 17 2 22.0118483095 59.6872479442 72.5665965757
307 18 1 54.5501005312 65.5594396054 47.9729386692
308 18 1 54.1911660839 61.0925529332 51.2034309817
309 18 2 54.7343761077 66.016810861 48.2263861677
310 18 2 54.9130657208 66.8182068904 48.8582757446
311 18 2 54.8740848554 67.4801458674 49.654370773
312 18 2 54.6344200083 67.9351171195 50.5538216788
313 18 2 54.2293494853 68.1344745295 51.4863582762
314 18 2 53.709227877 68.0528704984 52.3786947071
315 18 2 53.1348963731 67.6905663118 53.1612092509
316 18 2 52.5721372506 67.0734083241 53.7742901586
317 18 2 52.0856779945 66.2504721326 54.1737691043
318 18 2 51.7332915612 65.2895894678 54.3349470099
319 18 2 51.5605305275 64.2711655126 54.2548453004
320 18 2 51.5965750952 63.2808501847 53.9524773927
321 18 2 51.8515733935 62.4017313755 53.4671156735
322 18 2 52.3157165044 61.7067617111 52.8547119264
323 18 2 52.9601325192 61.2521091151 52.1827974765
324 18 2 53.7395181357 61.0720372526 51.5243278901
325 19 1 36.8860637403 65.1917094161 29.0744401982
326 19 1 32.8361458578 66.9151445284 25.7358884733
327 19 2 37.0436697992 65.5585282619 29.4591294919
328 19 2 37.3521466122 66.390307639 29.9943258435
329 19 2 37.6397751244 67.3515242637 30.2527488505
330 19 2 37.8635447474 68.3624705402 30.2158057441
331 19 2 37.9862654596 69.3389061478 29.8918255872
332 19 2 37.9799575777 70.1997363213 29.3153001027
333 19 2 37.8284020299 70.8744034216 28.5437398453
334 19 2 37.5286186808 71.3093180762 27.6524322676
335 19 2 37.091137963 71.4727437073 26.7275794707
336 19 2 36.5390410562 71.3576892358 25.8584411128
337 19 2 35.9058560995 70.9825462998 25.1291986295
338 19 2 35.2325021908 70.3894129059 24.6112823218
339 19 2 34.5635597208 69.6402563079 24.3568606744
340 19 2 33.9432069892 68.8112648579 24.394085338
341 19 2 33.4111934711 67.9859036415 24.7245251815
342 19 2 32.9992167583 67.247306858 25.323023294
343 20 1 52.3182608211 59.763652221 16.4982376082
344 20 1 53.9790850662 56.424897413 20.5740651586
345 20 2 51.8226946834 59.6402190682 16.2824598336
346 20 2 50.9872898239 59.1930747327 15.8634005595
347 20 2 50.328136191 58.4968611273 15.4706498561
348 20 2 49.8954731952 57.6097228036 15.1556286855
349 20 2 49.7188962309 56.6072065913 14.9626731703
350 20 2 49.804659135 55.5753757059 14.9249934753
351 20 2 50.1351041669 54.6029653173 15.0616467889
352 20 2 50.6702714638 53.7732945757 15.375800312
353 20 2 51.3515412756 53.1566722941 15.8544425757
354 20 2 52.1069769985 52.8039884879 16.4695694021
355 20 2 52.8578820043 52.7420758856 17.18073641
356 20 2 53.5259726272 52.9712641981 17.9387454127
357 20 2 54.0405135115 53.4653500655 18.6901287005
358 20 2 54.3447649494 54.173985424 19.3820224802
359 20 2 54.4011545543 55.0272665971 19.9669852681
360 20 2 54.194701883 55.942105829 20.4073220547
361 21 1 74.8803304111 56.7205504755 77.3323825939
362 21 1 69.764379004 58.4647836489 78.4737339413
363 21 2 74.9422799087 56.4898170802 76.8320767394
364 21 2 74.8711154114 55.9315154619 75.9622003524
365 21 2 74.5538843986 55.2626672181 75.2373165532
366 21 2 74.0081410888 54.5553121631 74.7126613548
367 21 2 73.2722679858 53.8849999042 74.4252204687
368 21 2 72.4019774156 53.323903697 74.3903581556
369 21 2 71.4652334974 52.9342420456 74.6004168146
370 21 2 70.5360573951 52.7626076528 75.0254149526
371 21 2 69.6877804867 52.8357206194 75.6157799176
372 21 2 68.9863604047 53.1579929786 76.3068663134
373 21 2 68.4843691746 53.7111265508 77.0248482542
374 21 2 68.2162014149 54.4557807739 77.6934483976
375 21 2 68.1949393597 55.3351584905 78.2408904198
376 21 2 68.4111604483 56.2801828568 78.6064412361
377 21 2 68.8337961659 57.2157935122 78.7459466587
378 21 2 69.4129638561 58.0677881307 78.6358559337
379 22 1 25.6795364085 44.0456436432 45.6857223433
380 22 1 26.0624784156 49.5547279641 45.5396524083
381 22 2 26.0853317825 43.7905925375 45.9643989228
382 22 2 26.9832763384 43.447530112 46.3509914187
383 22 2 27.9923577817 43.3151854494 46.5451293651
384 22 2 29.0233538758 43.4176327521 46.5438584631
385 22 2 29.9850449224 43.7575455626 46.3620354079
386 22 2 30.7925281929 44.3159530767 46.0309737409
387 22 2 31.3749565853 45.0539692821 45.5955897042
388 22 2 31.6819961483 45.9163373145 45.110308245
389 22 2 31.6884138864 46.8364659728 44.6341023273
390 22 2 31.3963776798 47.7424993291 44.2251177035
391 22 2 30.8352586883 48.5638662048 43.935373085
392 22 2 30.0589542481 49.2377125447 43.8060187753
393 22 2 29.1409752739 49.7146303961 43.8635859299
394 22 2 28.1677459358 49.9631613116 44.1175683125
395 22 2 27.2307263267 49.9726637027 44.5595569637
396 22 2 26.4180761193 49.754282792 45.1640066552
397 23 1 55.9116571167 37.2258997759 13.0684787338
398 23 1 53.1249100313 33.4589840477 10.142324664
399 23 2 56.4585666401 37.14020305 13.0989357926
400 23 2 57.4159736694 36.7631995012 13.2201385798
401 23 2 58.2161045007 36.1300423717 13.4000071801
402 23 2 58.7899538394 35.2919867857 13.604481585
403 23 2 59.0891413444 34.3189638139 13.7972590327
404 23 2 59.0903213664 33.2932064435 13.9431029075
405 23 2 58.7973108418 32.3017542613 14.0110544638
406 23 2 58.2407413888 31.4285200277 13.9772546323
407 23 2 57.4752673178 30.7466412534 13.827118711
408 23 2 56.5745840366 30.3118139099 13.5566657215
409 23 2 55.6247109112 30.1572158916 13.1728812644
410 23 2 54.7161508303 30.2904829386 12.6930808009
411 23 2 53.9356411092 30.6930126598 12.1433313943
412 23 2 53.358247615 31.321660091 11.5560757675
413 23 2 53.0405227137 32.1126702431 10.9671752347
414 23 2 53.015350673 32.987489199 10.4126410391
415 24 1 29.6063913876 30.3275055461 48.4466535072
416 24 1 25.2066557426 30.2951857321 51.7872032742
417 24 2 29.7181660132 30.8173796783 48.2123217859
418 24 2 29.6991618233 31.7268353853 47.7163589152
419 24 2 29.3830434602 32.5657890942 47.1970556648
420 24 2 28.7946111815 33.2699465542 46.7160569785
421 24 2 27.9834859306 33.7872998318 46.3315164415
422 24 2 27.0195865199 34.0828676958 46.0927957363
423 24 2 25.9867567183 34.1418840624 46.0359654578
424 24 2 24.9751231155 33.9711438848 46.1805173744
425 24 2 24.0728803243 33.5983838109 46.5275878056
426 24 2 23.3582522776 33.0697540623 47.05985405
427 24 2 22.8923623254 32.4456119649 47.7431133023
428 24 2 22.7136620057 31.7950205397 48.5294001484
429 24 2 22.8344262887 31.1894535935 49.3613584844
430 24 2 23.2396347466 30.696281072 50.177469372
431 24 2 23.8883406253 30.3726284696 50.9176583256
432 24 2 24.7174030317 30.260169993 51.5287709408
433 25 1 11.2024323586 67.0425271135 28.9137088534
434 25 1 8.73854146608 63.2534261818 25.737241183
435 25 2 11.4802170242 66.8384266651 29.347944129
436 25 2 11.7986841818 66.3407857256 30.1990505713
437 25 2 11.8381302749 65.7190532105 31.0269048438
438 25 2 11.6026712832 65.0139550461 31.7486012156
439 25 2 11.1214800501 64.2738157153 32.2909099647
440 25 2 10.4461272562 63.5501536092 32.5969520714
441 25 2 9.64588088913 62.8929852641 32.631383589
442 25 2 8.80139265206 62.3462664878 32.3836171501
443 25 2 7.99734677635 61.9438859049 31.8687869767
444 25 2 7.31474128019 61.7065760997 31.1263694364
445 25 2 6.82350521578 61.6400238961 30.216584877
446 25 2 6.57612482309 61.7343520191 29.214908703
447 25 2 6.60285954938 61.9650193819 28.2051919935
448 25 2 6.90898398146 62.2950579404 27.2720187014
449 25 2 7.47430708121 62.6784422317 26.4929960513
450 25 2 8.25501254471 63.0642844717 25.9316808491
451 26 1 17.9481275778 33.8265140687 40.699708017
452 26 1 22.3323450468 30.621128451 39.6887029294
453 26 2 18.0189044531 34.3633926185 40.5808230107
454 26 2 18.3469031645 35.3416617847 40.4867151205
455 26 2 18.9110001178 36.2082155642 40.5525116688
456 26 2 19.6702422974 36.8831541032 40.7561272192
457 26 2 20.5658897217 37.3040427655 41.0629145015
458 26 2 21.5267694356 37.4316028816 41.4288224179
459 26 2 22.4757627354 37.2532918952 41.8044111828
460 26 2 23.3368343319 36.7844465836 42.1393586274
461 26 2 24.0419627645 36.0668851511 42.3870469302
462 26 2 24.537340375 35.1650956119 42.5088117075
463 26 2 24.7882777321 34.1603578793 42.4774661684
464 26 2 24.7823654803 33.1433353198 42.2797791181
465 26 2 24.5306054192 32.2058110287 41.9176809458
466 26 2 24.0664077195 31.4323220466 41.4080876752
467 26 2 23.4425456747 30.8924540344 40.7813591139
468 26 2 22.7263455564 30.6344987257 40.0785316383
469 27 1 45.6479215797 12.6737728724 69.3642533891
470 27 1 45.480921854 13.9715036314 74.7313752463
471 27 2 46.1479524971 12.527281721 69.1748041553
472 27 2 47.1508049993 12.4527794442 68.9254323828
473 27 2 48.167682117 12.6338978171 68.8441484759
474 27 2 49.1128622743 13.0440248745 68.9531451652
475 27 2 49.9071588813 13.6356751216 69.2572716133
476 27 2 50.4851379804 14.3448177101 69.7435914271
477 27 2 50.8010823769 15.0967126787 70.3825617751
478 27 2 50.8331586388 15.8127233011 71.1307261375
479 27 2 50.5854071557 16.4174836132 71.9346752521
480 27 2 50.0873738684 16.8457678191 72.7359152254
481 27 2 49.3914172353 17.0484354486 73.4761990952
482 27 2 48.5679358984 16.9969103792 74.102835885
483 27 2 47.6989520361 16.6857854737 74.5734932459
484 27 2 46.87063526 16.1333154261 74.8600559371
485 27 2 46.1654484856 15.3797528948 74.951188455
486 27 2 45.6546316579 14.4836795808 74.8533682336
487 28 1 49.4999468714 41.8005293773 75.157746195
488 28 1 46.2613571854 40.0500474318 79.2766466387
489 28 2 49.581318535 42.348701948 75.1414038228
490 28 2 49.4987974498 43.3813745168 75.126315833
491 28 2 49.1200894838 44.3455067318 75.1482101163
492 28 2 48.4810495526 45.1575220522 75.2237686824
493 28 2 47.6412611346 45.7477089855 75.3647821849
494 28 2 46.6786053962 46.0665751038 75.5770752351
495 28 2 45.6821625318 46.0893581464 75.8599755039
496 28 2 44.7440923418 45.8182830333 76.206375003
497 28 2 43.9512341136 45.2823590704 76.603377959
498 28 2 43.3771914522 44.534735828 77.0334762286
499 28 2 43.0756235086 43.6478587002 77.4761451191
500 28 2 43.0753540915 42.7068657002 77.9097141593
501 28 2 43.3777444543 41.8018273588 78.3133423052
502 28 2 43.9565692203 41.0195370353 78.6689175451
503 28 2 44.7604067558 40.4355999355 78.9627077614
504 28 2 45.7173261147 40.107541899 79.186612376
505 29 1 66.1451909284 58.144745318 24.3347286776
506 29 1 67.2408968947 63.3487449564 22.8394670751
507 29 2 66.5225297885 57.9132318527 24.668492798
508 29 2 67.3793652843 57.5573733677 25.1296301778
509 29 2 68.3679620518 57.3420101982 25.3526663804
510 29 2 69.4029659968 57.3015341996 25.328613554
511 29 2 70.394793135 57.4543967292 25.0710053511
512 29 2 71.2577949325 57.8014268542 24.6146633729
513 29 2 71.9180649409 58.3257557843 24.0125232728
514 29 2 72.3201751726 58.9943544173 23.3308098133
515 29 2 72.4322282136 59.7610438528 22.6430006562
516 29 2 72.2487645875 60.5707044762 22.0231290695
517 29 2 71.7912603724 61.3642999639 21.5390359935
518 29 2 71.1061697135 62.0842582865 21.2461865201
519 29 2 70.2606906523 62.6797192453 21.1826143978
520 29 2 69.3366402042 63.1111702437 21.3654553576
521 29 2 68.4229969567 63.3540477544 21.7893852365
522 29 2 67.6077909087 63.4009762197 22.427105261
523 30 1 30.716286905 23.8482118798 51.5325715828
524 30 1 28.8627924003 19.970800981 55.0036281804
525 30 2 30.6182616408 24.370216487 51.6915804686
526 30 2 30.2150241472 25.2674623924 52.0168485427
527 30 2 29.5613833791 25.990360833 52.3684471803
528 30 2 28.7196918925 26.4719023086 52.7333077837
529 30 2 27.7694425639 26.6670763615 53.097152962
530 30 2 26.800023027 26.5569741589 53.4457978781
531 30 2 25.9025682285 26.1505119831 53.7664431579
532 30 2 25.1616537217 25.4836185356 54.0488415193
533 30 2 24.6475868307 24.6159601323 54.2862317846
534 30 2 24.4099983258 23.6255022784 54.4759551438
535 30 2 24.4733187113 22.6014033205 54.6196974981
536 30 2 24.8345514502 21.6358879021 54.7233357942
537 30 2 25.4635460911 20.8158409337 54.7964023566
538 30 2 26.3057464007 20.2148882654 54.8512160417
539 30 2 27.2871630189 19.8866858871 54.9017594067
540 30 2 28.321117391 19.8600293293 54.9624042372
541 31 1 17.7811715961 7.35197023001 26.76390817
542 31 1 19.3246042319 11.4197865717 30.1681227593
543 31 2 17.4506182485 7.5087768998 26.3473415597
544 31 2 16.7090300793 7.90359425834 25.7410279018
545 31 2 15.8727657679 8.41300196731 25.4024783503
546 31 2 15.0255023156 9.00764921368 25.3578767145
547 31 2 14.2519192657 9.65041582844 25.6066142367
548 31 2 13.6299803898 10.2997956907 26.1213450793
549 31 2 13.2238274983 10.9136798999 26.850478824
550 31 2 13.0779340861 11.4531948891 27.7228828014
551 31 2 13.2130516919 11.8862456473 28.6543656432
552 31 2 13.6243184514 12.1904410934 29.5553511006
553 31 2 14.2817022429 12.3551349637 30.3390426796
554 31 2 15.132738035 12.3823961901 30.92933491
555 31 2 16.1073099341 12.286820323 31.2677501552
556 31 2 17.1240420607 12.0941991852 31.3187686927
557 31 2 18.0977157432 11.8391700168 31.0730662415
558 31 2 18.947036972 11.562058383 30.548363846
559 32 1 4.37881054447 13.9774045652 59.428011478
560 32 1 8.9927614313 13.3835243756 62.4073997702
561 32 2 4.01329067413 13.5636041543 59.4784697017
562 32 2 3.51740484606 12.6552279519 59.5274587997
563 32 2 3.30510187161 11.6411406653 59.5295643318
564 32 2 3.3972287218 10.60950549 59.5032675673
565 32 2 3.78688440281 9.65008506502 59.4696385693
566 32 2 4.44004896312 8.84605984764 59.450415714
567 32 2 5.29868432115 8.26644643745 59.4660242965
568 32 2 6.28602428128 7.95980689756 59.5337148193
569 32 2 7.31357156742 7.94982245241 59.6659906553
570 32 2 8.28916411317 8.23313500743 59.8694683986
571 32 2 9.12537538786 8.77965323043 60.1442747799
572 32 2 9.74748309112 9.53529529603 60.4840351151
573 32 2 10.1002798909 10.4269182996 60.876454341
574 32 2 10.1531054242 11.3689850373 61.3044376769
575 32 2 9.90264090714 12.271360494 61.7476487689
576 32 2 9.3732116334 13.0475274085 62.1843632935
577 33 1 57.5647032927 70.8482998875 27.7358939761
578 33 1 60.937403463 71.4767349571 32.0657847352
579 33 2 57.8139306403 70.8671225119 27.241007094
580 33 2 58.3736927932 71.1005541862 26.4009916199
581 33 2 59.0242094665 71.564301754 25.7412823943
582 33 2 59.7226351715 72.2068257738 25.3255728446
583 33 2 60.4217576392 72.9602918088 25.1953164799
584 33 2 61.0743010926 73.7467533535 25.3659485143
585 33 2 61.6372353074 74.4852564504 25.8254789886
586 33 2 62.0756977019 75.0992184261 26.535585623
587 33 2 62.366170968 75.5234081974 27.4351067905
588 33 2 62.4986266113 75.7098919105 28.4456162356
589 33 2 62.4774390212 75.6324019834 29.4785714177
590 33 2 62.3209867574 75.288731326 30.4433839278
591 33 2 62.0599773928 74.7009345101 31.2556763788
592 33 2 61.7346486007 73.9133175544 31.8449731796
593 33 2 61.3911005985 72.9883995496 32.1611241966
594 33 2 61.0770942355 72.0012142095 32.1788758043