LAMMPS input file for bananas

648 atoms

2 atom types

0 85.0126855346 xlo xhi
0 85.0126855346 ylo yhi
0 85.0126855346 zlo zhi

Masses

 1 1
 2 1

Atoms

1 1 1 11.0838693964 57.9314992142 32.1338349054
2 1 1 7.00564205119 54.7241348885 34.0309028706
3 1 2 11.0450020982 58.466391756 32.2744083379
4 1 2 10.7530747357 59.4439720734 32.4548665027
5 1 2 10.1948244749 60.313594956 32.5294500099
6 1 2 9.41446077998 60.9948277275 32.5093396667
7 1 2 8.4764381607 61.4244089663 32.4143473715
8 1 2 7.45958131659 61.5620146158 32.2711103128
9 1 2 6.44990047602 61.3939334139 32.1106630601
10 1 2 5.53275179381 60.9343166378 31.965608846
11 1 2 4.78505736587 60.2238882532 31.867147869
12 1 2 4.26829398573 59.3262330336 31.8422334785
13 1 2 4.02288969916 58.322000978 31.9111154491
14 1 2 4.06453889581 57.3015562793 32.0854942676
15 1 2 4.38277180758 56.3567408692 32.3674546655
16 1 2 4.94190879996 55.5725032722 32.7492756004
17 1 2 5.68431247539 55.0191557741 33.2141340092
18 1 2 6.53564116797 54.7459656455 33.737638185
19 2 1 9.76982544661 40.6812993142 70.669609403
20 2 1 9.14735919178 45.1874627945 67.5351210058
21 2 2 9.97684344477 40.7752699447 71.1752719951
22 2 2 10.5278436213 41.0704865849 72.0015261643
23 2 2 11.2400454408 41.5109215544 72.6116373157
24 2 2 12.039957746 42.0729647891 72.954708325
25 2 2 12.8460948033 42.7219219566 73.004182063
26 2 2 13.5764035095 43.4151767519 72.7602620071
27 2 2 14.1557423129 44.1060752595 72.2498936948
28 2 2 14.5227301651 44.7481783333 71.52430871
29 2 2 14.6353412391 45.2994944006 70.6543550611
30 2 2 14.4747354715 45.7263068815 69.7240395745
31 2 2 14.0469757839 46.0062473655 68.8228708965
32 2 2 13.3824754633 46.130334432 68.0377010199
33 2 2 12.533226073 46.1037922826 67.4448089567
34 2 2 11.56805856 45.9455745696 67.1029481103
35 2 2 10.5663694984 45.686636821 67.0479910594
36 2 2 9.61088430398 45.3671149266 67.2896598687
37 3 1 38.4052507901 23.6788068539 38.8082629815
38 3 1 41.6270841274 21.97169283 34.6581373549
39 3 2 38.4369044344 23.3729319995 39.2695873883
40 3 2 38.4610187137 22.6222305366 39.983251053
41 3 2 38.4535985744 21.6961779132 40.4478169701
42 3 2 38.4340541556 20.6749591722 40.6215417813
43 3 2 38.4229006923 19.6474334941 40.4891915177
44 3 2 38.4398886062 18.7030349197 40.0634301355
45 3 2 38.5022033077 17.9236206764 39.3836652302
46 3 2 38.6228987917 17.3760101109 38.5124561393
47 3 2 38.8097078007 17.1058942843 37.5298118265
48 3 2 39.0643370063 17.1336713537 36.5258982778
49 3 2 39.3823114502 17.4525873351 35.5928201134
50 3 2 39.7533824253 18.0293517108 34.8162254974
51 3 2 40.1624616171 18.8071717711 34.2674995368
52 3 2 40.5909963642 19.710929118 33.9972577198
53 3 2 41.0186606831 20.6540265064 34.0307324489
54 3 2 41.4252079275 21.5462809517 34.3654731757
55 4 1 67.1266503119 55.4246843465 48.7546938772
56 4 1 69.2944246184 58.0251324743 53.120059286
57 4 2 67.2932024172 55.6167269558 48.2619854234
58 4 2 67.5443405622 56.1840484371 47.4322107671
59 4 2 67.7130489123 56.9791939234 46.7897692061
60 4 2 67.8024537603 57.9335948836 46.3966081811
61 4 2 67.8229097013 58.9641670754 46.2919538781
62 4 2 67.7910558389 59.9808834526 46.4887358666
63 4 2 67.7282991756 60.8949798893 46.9724086038
64 4 2 67.6588634215 61.627045793 47.702277222
65 4 2 67.607581068 62.1142621679 48.6152067568
66 4 2 67.5976299726 62.3161273979 49.6313767307
67 4 2 67.648420759 62.2181488615 50.6615565759
68 4 2 67.7738275908 61.8331638949 51.6152387626
69 4 2 67.9809235784 61.2001697034 52.4088883179
70 4 2 68.2693360842 60.3807688701 52.9735568154
71 4 2 68.631280687 59.4535544456 53.2611668405
72 4 2 69.0522707118 58.5069464007 53.2488941174
73 5 1 54.9439409496 55.4864991046 71.9513739796
74 5 1 54.9316800699 50.6228860332 74.5711275221
75 5 2 54.6174191462 55.8739043869 72.1765011597
76 5 2 53.8450724999 56.4276413376 72.589182706
77 5 2 52.9266780667 56.7136181797 72.9741748123
78 5 2 51.9483862233 56.7024958971 73.3151606994
79 5 2 51.0018068357 56.3920152647 73.5998346376
80 5 2 50.1756592641 55.8072027712 73.8210235807
81 5 2 49.5476858306 54.9980895209 73.97734097
82 5 2 49.1775658143 54.0351510328 74.0733131158
83 5 2 49.1014758445 53.002883585 74.1189666359
84 5 2 49.3287924975 51.9921026051 74.1289145564
85 5 2 49.8412376472 51.0916650866 74.1210243732
86 5 2 50.5945444668 50.3803705113 74.114789478
87 5 2 51.5224922321 49.9197784873 74.1295523871
88 5 2 52.5429421636 49.7485977554 74.1827417233
89 5 2 53.5653241565 49.8791579903 74.288283643
90 5 2 54.4988920038 50.2962859844 74.455332505
91 6 1 27.1557788776 25.4323100142 7.45323408677
92 6 1 25.9308575251 30.6327387541 6.04856342698
93 6 2 27.3269733593 25.3657956155 7.97634963067
94 6 2 27.7938470284 25.4170468207 8.89984965896
95 6 2 28.4041362963 25.7020877439 9.68709084991
96 6 2 29.0909381109 26.2073330068 10.2757167948
97 6 2 29.780375506 26.899126194 10.6214743337
98 6 2 30.3983312891 27.7268075454 10.7022471127
99 6 2 30.8772036257 28.6273314581 10.5200714307
100 6 2 31.1620677657 29.5310129242 10.1009506359
101 6 2 31.2156822877 30.3678791334 9.49248499019
102 6 2 31.0218835547 31.0740473075 8.7595330326
103 6 2 30.5870589868 31.5975474448 7.97829989675
104 6 2 29.9395648645 31.9030592469 7.22939141665
105 6 2 29.12714173 31.9751314696 6.5904671203
106 6 2 28.2125629641 31.8195902624 6.12916177132
107 6 2 27.2679131603 31.4630081305 5.89692064101
108 6 2 26.3680178069 30.9502819223 5.92431040938
109 7 1 36.6862337279 18.8372756221 41.7195891307
110 7 1 35.3416262196 17.3576550169 46.8694186982
111 7 2 36.6743949246 19.3830411479 41.6227313915
112 7 2 36.4384906924 20.3884044766 41.538804151
113 7 2 35.9504009302 21.3001693256 41.6012801893
114 7 2 35.2615654887 22.0422654093 41.8209370767
115 7 2 34.4417216508 22.5540872969 42.1942257694
116 7 2 33.5725477644 22.7960184346 42.703594095
117 7 2 32.7402184798 22.7530420896 43.3190865863
118 7 2 32.02755016 22.4361100843 44.0010748421
119 7 2 31.5064523909 21.8811445676 44.70386955
120 7 2 31.231373615 21.1457638064 45.3798849451
121 7 2 31.2343383008 20.3040304353 45.9839761251
122 7 2 31.5220279986 19.4397008448 46.477553888
123 7 2 32.0751723349 18.6385910106 46.832102034
124 7 2 32.8503054552 17.9807545963 47.0317765417
125 7 2 33.7837278208 17.5331862764 47.0748497076
126 7 2 34.7973122513 17.3437153507 46.9738676221
127 8 1 80.6592936458 24.569885507 15.5986261343
128 8 1 77.0619582482 21.7897843777 18.7368114076
129 8 2 80.6309762802 25.1217321432 15.643847866
130 8 2 80.3484787702 26.1174138685 15.6914196006
131 8 2 79.788328281 26.9889319437 15.7031535326
132 8 2 78.9981719156 27.6590528633 15.6967595972
133 8 2 78.0466211977 28.0688999342 15.6916000359
134 8 2 77.0169983153 28.183319729 15.7069245806
135 8 2 75.9997415251 27.9940862268 15.7601158915
136 8 2 75.0841619477 27.5206505932 15.8651051744
137 8 2 74.3503030975 26.8083682586 16.0311023882
138 8 2 73.8616451304 25.9243648916 16.2617567822
139 8 2 73.6593187971 24.951418074 16.5548242765
140 8 2 73.7583564852 23.9804123455 16.9023720037
141 8 2 74.1463220571 23.1020553206 17.2915013691
142 8 2 74.7844443709 22.3986099321 17.7055237225
143 8 2 75.6111511665 21.9363963847 18.1254814846
144 8 2 76.547681212 21.7597472455 18.5318760794
145 9 1 61.1791245738 36.5840256277 25.8764958689
146 9 1 64.9665808618 32.6801051198 24.910798921
147 9 2 60.6551296872 36.4296407132 25.7817528216
148 9 2 59.7626939591 36.0692025418 25.3982260206
149 9 2 59.0543960836 35.6291930683 24.7832822883
150 9 2 58.594877514 35.1315692532 23.9992776748
151 9 2 58.426104135 34.6035394504 23.1239776776
152 9 2 58.563541184 34.0750834383 22.2434691246
153 9 2 58.9947436365 33.5762198431 21.4443135893
154 9 2 59.6804905367 33.1342700214 20.8056575355
155 9 2 60.5583598826 32.7713677912 20.392018328
156 9 2 61.5484182248 32.5024419941 20.2474036474
157 9 2 62.5605063868 32.3338557708 20.3913003079
158 9 2 63.5024572328 32.2628265782 20.816898086
159 9 2 64.288496456 32.2776798104 21.4917104542
160 9 2 64.8470606771 32.3589129083 22.3605356414
161 9 2 65.1273202557 32.4809729652 23.3504881263
162 9 2 65.1038122752 32.6145858063 24.3776419583
163 10 1 4.08890311034 7.6061057818 5.50243430428
164 10 1 7.41692326501 7.9488660365 1.10643745269
165 10 2 3.62785648502 7.91240321047 5.47081971066
166 10 2 2.91647334426 8.65667060676 5.35484522629
167 10 2 2.45281823673 9.56224068665 5.15884322924
168 10 2 2.27443817777 10.5446226769 4.88215533457
169 10 2 2.39287812448 11.5123246038 4.53147746123
170 10 2 2.79262868381 12.3751925423 4.12024951696
171 10 2 3.43253975221 13.0526279052 3.66743038665
172 10 2 4.24957123765 13.480933789 3.19576988062
173 10 2 5.16453899547 13.6191207761 2.72973515024
174 10 2 6.08933225155 13.4526430111 2.29328057245
175 10 2 6.93494466387 12.9947240166 1.90766437236
176 10 2 7.61958701267 12.2851514041 1.58951099282
177 10 2 8.07614206927 11.3866503397 1.3492958209
178 10 2 8.25828215203 10.3791663132 1.19039038436
179 10 2 8.14469177074 9.35257831992 1.1087550459
180 10 2 7.74101047655 8.39850663072 1.09330720531
181 11 1 49.3633217917 80.2150376864 65.5671490494
182 11 1 54.0981783975 80.5326957402 68.3952610246
183 11 2 49.1734008867 79.7004213552 65.4866402326
184 11 2 49.0374418552 78.6985928493 65.2601346085
185 11 2 49.1997248651 77.718079462 64.9673757773
186 11 2 49.649775055 76.8398422154 64.6517744841
187 11 2 50.3508883546 76.1355199346 64.3588235033
188 11 2 51.2434769617 75.6608995605 64.1319510941
189 11 2 52.2505006119 75.4508313191 64.0085626302
190 11 2 53.2844885925 75.5160522166 64.0166312006
191 11 2 54.2555124638 75.8422073901 64.1721479368
192 11 2 55.0793827969 76.3911585146 64.477664464
193 11 2 55.6853228141 77.1044600099 64.9220603275
194 11 2 56.0224195039 77.9086861985 65.4815565924
195 11 2 56.0642642052 78.7221238605 66.1218832295
196 11 2 55.8113596869 79.4622201745 66.8014027376
197 11 2 55.2910743211 80.053107187 67.4749052897
198 11 2 54.5551475298 80.4325169737 68.0977294886
199 12 1 45.2948193117 62.682599429 63.1969293226
200 12 1 48.8877939622 58.7410673283 61.7571901372
201 12 2 45.0316283368 62.9248054031 62.7733158609
202 12 2 44.7573009206 63.4019574449 61.8955229418
203 12 2 44.7843288707 63.8600383739 60.9666088642
204 12 2 45.1073072768 64.242409778 60.0594555862
205 12 2 45.6938561355 64.4993339658 59.2449616273
206 12 2 46.4875717013 64.5925074246 58.5855798574
207 12 2 47.4131675368 64.4985520828 58.1296250853
208 12 2 48.3833366707 64.2111461588 57.9068702924
209 12 2 49.3067093945 63.7416003747 57.9258329055
210 12 2 50.0961813676 63.1178270139 58.1729984557
211 12 2 50.6768529449 62.3817957913 58.6140523864
212 12 2 50.9928560791 61.5857084256 59.1970077334
213 12 2 51.0124465444 60.7872405928 59.8569435976
214 12 2 50.7308973372 60.0442849419 60.5219225115
215 12 2 50.1709295306 59.4096743349 61.1195473471
216 12 2 49.3806413084 58.9263662727 61.5835601207
217 13 1 43.8274886758 79.9367980555 61.692622175
218 13 1 42.7534388688 83.2047488728 57.3700181532
219 13 2 44.3564037038 79.9356280292 61.8588422467
220 13 2 45.3883202368 79.8939636199 61.9416815917
221 13 2 46.3978716125 79.8200488367 61.7207910401
222 13 2 47.2978952593 79.7390654645 61.2139881791
223 13 2 48.0112117653 79.6768395712 60.465150739
224 13 2 48.4776595753 79.6574875305 59.5402172548
225 13 2 48.6595785563 79.7012178791 58.5211769454
226 13 2 48.5452426172 79.8224893624 57.4985966153
227 13 2 48.1499285113 80.0286930588 56.5633657323
228 13 2 47.5145234007 80.3194787023 55.7984120958
229 13 2 46.7017981009 80.6867866088 55.271143189
230 13 2 45.7906856887 81.115582294 55.0273021674
231 13 2 44.8690869632 81.5852268273 55.0867984925
232 13 2 44.025858523 82.0713580146 55.441893237
233 13 2 43.3427137246 82.5481109474 56.057904468
234 13 2 42.8867747285 82.9904755199 56.8763684122
235 14 1 67.758533347 19.8889038691 44.8446768423
236 14 1 67.5213239632 15.1536855772 47.6800657922
237 14 2 67.4262533537 19.9126936199 44.4015000809
238 14 2 66.9043919702 19.75023153 43.5213201124
239 14 2 66.5396011336 19.325003197 42.6497935657
240 14 2 66.3494793103 18.6666210581 41.8727242878
241 14 2 66.3357043529 17.825948897 41.2673065979
242 14 2 66.4838805684 16.8704657455 40.8950892318
243 14 2 66.7648508474 15.8781153505 40.7963653392
244 14 2 67.1373542565 14.9302018094 40.9864998706
245 14 2 67.5517868622 14.1039789193 41.454529103
246 14 2 67.9547229966 13.4656086996 42.1641599545
247 14 2 68.2937848646 13.0641309011 43.0570780012
248 14 2 68.5224166398 12.9269931632 44.0582626812
249 14 2 68.6041279034 13.0575492355 45.0828252183
250 14 2 68.5158196488 13.4347532924 46.0437460074
251 14 2 68.2498896938 14.0150782036 46.8598062182
252 14 2 67.8149255997 14.7364829158 47.4629906753
253 15 1 58.4323485572 78.9313343814 27.4050388738
254 15 1 53.76854916 76.1847723996 28.511096523
255 15 2 58.4376786252 79.1959182147 26.9178545416
256 15 2 58.3770598812 79.4820729841 25.9239275689
257 15 2 58.2146436873 79.4808799768 24.9006633959
258 15 2 57.9471890641 79.198953021 23.9402284801
259 15 2 57.5810290046 78.6684940942 23.1290625606
260 15 2 57.1314932383 77.9443581989 22.539999906
261 15 2 56.6215109676 77.0990534752 22.2256306662
262 15 2 56.0795209321 76.2161322785 22.2135074205
263 15 2 55.5368792938 75.382575605 22.5036338336
264 15 2 55.0250016064 74.6808650065 23.0684643217
265 15 2 54.5724993718 74.1814646174 23.8554147587
266 15 2 54.2025721781 73.9363985375 24.7916553789
267 15 2 53.9308931189 73.9745089738 25.7907490154
268 15 2 53.7641802332 74.2988273509 26.760529617
269 15 2 53.6995841737 74.8862980046 27.611502937
270 15 2 53.7249479173 75.6898796438 28.2650036951
271 16 1 38.7489348206 49.9724872074 64.839332961
272 16 1 39.904575226 45.5514963513 67.9437372783
273 16 2 38.8734742391 50.4601640932 65.0718039836
274 16 2 38.9854105664 51.2850516577 65.6886352213
275 16 2 38.9457356442 51.9282712981 66.4998962186
276 16 2 38.7745281988 52.3271195301 67.4406714892
277 16 2 38.5038557941 52.4411666696 68.4342406667
278 16 2 38.1748519595 52.2559418912 69.3990713614
279 16 2 37.833966978 51.7842522048 70.2562506194
280 16 2 37.5287340677 51.065015131 70.9366776276
281 16 2 37.3034368556 50.1597114734 71.3873620679
282 16 2 37.1950730433 49.1467815069 71.5762540434
283 16 2 37.2299821657 48.1144753572 71.4951653406
284 16 2 37.4214448127 47.1528092373 71.1605157632
285 16 2 37.7684721386 46.3453607099 70.6118365108
286 16 2 38.2558959933 45.7616508169 69.9081670161
287 16 2 38.8557514582 45.4508074211 69.1226736579
288 16 2 39.529825774 45.4370873339 68.3359808416
289 17 1 37.7332685864 44.6772289821 76.7569889046
290 17 1 43.0684123052 45.9641986259 77.3878151066
291 17 2 37.6114683112 44.1418344124 76.8337934338
292 17 2 37.5615214255 43.1069869166 76.8270125591
293 17 2 37.7555321136 42.1068732998 76.6383790055
294 17 2 38.1873840131 41.2280834086 76.2997312901
295 17 2 38.829282171 40.5461487562 75.85658132
296 17 2 39.6342864791 40.1186580271 75.3639661035
297 17 2 40.5405901399 39.9800080223 74.8814312738
298 17 2 41.4771531902 40.1382684824 74.4676036639
299 17 2 42.3701776047 40.5744465532 74.1748476274
300 17 2 43.1498337881 41.2442179328 74.0444921674
301 17 2 43.7566253566 42.0819669135 74.1030639087
302 17 2 44.1468120738 43.0067670785 74.3598692665
303 17 2 44.2963966567 43.9297575279 74.8061461919
304 17 2 44.2033120639 44.7622423127 75.4158628086
305 17 2 43.8876099003 45.4237748334 76.1480901499
306 17 2 43.389632768 45.8494903322 76.9507327234
307 18 1 46.2732464936 19.0051346889 3.06897365125
308 18 1 42.1061280428 21.9469591919 5.19000723687
309 18 2 46.3565452309 19.0763330375 2.52549071355
310 18 2 46.2812218416 19.1670331688 1.49614631813
311 18 2 45.9098214367 19.2114390792 0.529947650396
312 18 2 45.2728227147 19.224308596 -0.287069494371
313 18 2 44.4249129507 19.2232740047 -0.882466817967
314 18 2 43.4400033977 19.2272349129 -1.20400607656
315 18 2 42.4044924733 19.2546356019 -1.22441045697
316 18 2 41.4093907746 19.3217838796 -0.94385078531
317 18 2 40.5420257062 19.4413646674 -0.389929956641
318 18 2 39.8780818199 19.6212838036 0.384832995158
319 18 2 39.4747023706 19.8639474472 1.30778986694
320 18 2 39.3652808613 20.1660427631 2.29278497583
321 18 2 39.5564173141 20.5188398783 3.24800801948
322 18 2 40.0273166966 20.908987586 4.08436233968
323 18 2 40.7316843329 21.3197302729 4.72358584468
324 18 2 41.6019455397 21.7324351484 5.10538438964
325 19 1 13.908350818 8.1799960689 71.4262003292
326 19 1 10.8222417642 5.6035047553 75.2150807021
327 19 2 13.860670176 8.73234890224 71.4223935037
328 19 2 13.5410972798 9.71781871761 71.4092626935
329 19 2 12.9474451938 10.566942263 71.4052109456
330 19 2 12.1324913135 11.2062517624 71.429367688
331 19 2 11.1691841015 11.5814034293 71.4982912202
332 19 2 10.14399403 11.6621307576 71.6244594685
333 19 2 9.14903202839 11.4450032328 71.8151326562
334 19 2 8.27365381842 10.953739014 72.0716915539
335 19 2 7.59631537875 10.2370430874 72.3895116259
336 19 2 7.17742189235 9.36416793681 72.758384544
337 19 2 7.05382197543 8.41860136486 73.1634486497
338 19 2 7.2354490246 7.49045680294 73.5865435544
339 19 2 7.7044158143 6.66825971281 74.0078654104
340 19 2 8.41664486965 6.03087872734 74.4077719785
341 19 2 9.30588601038 5.64033698543 74.7685729661
342 19 2 10.2897548778 5.53615888868 75.0761424494
343 20 1 11.9843213879 24.9120738926 31.0122275996
344 20 1 9.98221244658 19.7819497218 31.4496939868
345 20 2 11.6569876169 25.3089776808 31.2188711898
346 20 2 10.8806460812 25.9460597519 31.4735676087
347 20 2 9.94730761212 26.3892102532 31.5506840567
348 20 2 8.93492741931 26.5894647801 31.4588446271
349 20 2 7.92866515434 26.5199982472 31.22207329
350 20 2 7.013122836 26.1785699228 30.8776041713
351 20 2 6.2646336024 25.5877276652 30.4724877619
352 20 2 5.7443041495 24.7927527467 30.0593023914
353 20 2 5.49244501904 23.8575325854 29.6913618532
354 20 2 5.52489640044 22.858737579 29.4178559955
355 20 2 5.83158433985 21.8788328021 29.2793671977
356 20 2 6.37743895415 20.9985615354 29.304171395
357 20 2 7.10559095702 20.2895857314 29.5056608025
358 20 2 7.94255514241 19.8079542193 29.8811232507
359 20 2 8.80492836466 19.5889940033 30.4119893925
360 20 2 9.60699151234 19.6440903014 31.0655252494
361 21 1 20.4108611878 11.1959973283 55.6197258119
362 21 1 20.7991158489 10.4565867128 61.0805427216
363 21 2 20.6934813974 10.8300669268 55.3137808064
364 21 2 21.3990354331 10.2038862754 54.8853635966
365 21 2 22.2755679482 9.68896309338 54.6853764025
366 21 2 23.2405222286 9.31598549065 54.7419533932
367 21 2 24.2032821525 9.10270361696 55.0598435981
368 21 2 25.0734316081 9.05231178318 55.6199780455
369 21 2 25.7689956801 9.1531573084 56.3812078485
370 21 2 26.2239124443 9.37980263068 57.284054816
371 21 2 26.3940543354 9.6953438728 58.2561327309
372 21 2 26.2612502567 10.054774532 59.2187451602
373 21 2 25.8349418269 10.4090877026 60.0940584247
374 21 2 25.1513228019 10.7097429242 60.8121959307
375 21 2 24.2700401105 10.913090515 61.3176072349
376 21 2 23.2687571965 10.9843501238 61.5741313184
377 21 2 22.2360752032 10.9007808659 61.5682925677
378 21 2 21.2634572161 10.6537540938 61.3105290401
379 22 1 75.0681551323 22.6526434175 71.7613180763
380 22 1 72.5015501584 20.7989977902 76.288406308
381 22 2 74.928292657 23.166584137 71.6074187166
382 22 2 74.4475340215 24.0446611029 71.3403943966
383 22 2 73.7196253243 24.7529922412 71.1357827196
384 22 2 72.8091503201 25.2358263253 71.0292157217
385 22 2 71.7973331943 25.4579655828 71.0473889287
386 22 2 70.774635196 25.4079738776 71.20562813
387 22 2 69.8325093366 25.0992190838 71.5064924741
388 22 2 69.0550646925 24.5686546392 71.9395412088
389 22 2 68.5114000874 23.8734513385 72.482285328
390 22 2 68.2493059193 23.0857863681 73.1022373848
391 22 2 68.2909081935 22.2862645485 73.7598726347
392 22 2 68.6306517962 21.5565714202 74.4122316111
393 22 2 69.2358068285 20.9720278252 75.0168357656
394 22 2 70.0494518489 20.5947246136 75.5355592743
395 22 2 70.9956621108 20.4678632282 75.9381041044
396 22 2 71.9864299004 20.611818009 76.2047615992
397 23 1 55.4261530875 18.7657958803 52.6450861498
398 23 1 56.1910336665 20.3567579194 47.4104143787
399 23 2 54.9180554625 18.8599448279 52.8459701144
400 23 2 54.00497425 19.2528616791 53.1381157264
401 23 2 53.203092283 19.8920325465 53.2860884411
402 23 2 52.574487196 20.7152483389 53.2611602438
403 23 2 52.1654428993 21.643524762 53.0503625755
404 23 2 52.0022309239 22.5883015257 52.6576683829
405 23 2 52.0887158416 23.4595143783 52.1036299947
406 23 2 52.4060030201 24.1738042217 51.4235058316
407 23 2 52.9141608176 24.6621150707 50.6640466959
408 23 2 53.5558602456 24.8759883216 49.8792345606
409 23 2 54.2616003531 24.7919796241 49.1253622567
410 23 2 54.9560430522 24.4137957713 48.4559025324
411 23 2 55.5648799834 23.7719568357 47.9166341548
412 23 2 56.0216055244 22.9210143456 47.5414692978
413 23 2 56.2735785995 21.9345790596 47.3493625379
414 23 2 56.286820773 20.8986115425 47.3425831955
415 24 1 58.3046657129 18.4766025248 21.6039395354
416 24 1 56.7133210296 13.337382029 22.858541407
417 24 2 57.9985548687 18.8783119584 21.8326473621
418 24 2 57.2468402257 19.5056371644 22.1715252053
419 24 2 56.3196164846 19.916617896 22.3831876335
420 24 2 55.2977707862 20.0665037347 22.4657443721
421 24 2 54.2708148095 19.9343423641 22.4290727846
422 24 2 53.3287260221 19.5248893167 22.2939175781
423 24 2 52.5537464739 18.8681745206 22.0899999783
424 24 2 52.0128866542 18.0167651511 21.8533087192
425 24 2 51.751817665 17.0409742736 21.6228197662
426 24 2 51.790708422 16.0224519955 21.4369437612
427 24 2 52.1223873113 15.0467432772 21.330024995
428 24 2 52.7129958638 14.1954907375 21.3292110172
429 24 2 53.5050748634 13.5389931472 21.4519782095
430 24 2 54.4228016013 13.129797884 21.7045388603
431 24 2 55.3789009131 12.9979113794 22.0812749311
432 24 2 56.282600077 13.1480641129 22.5652501258
433 25 1 61.7421803329 58.543897306 62.9650083079
434 25 1 64.4410569842 54.5717188751 60.2344672634
435 25 2 61.3451207294 58.363619848 63.3073901086
436 25 2 60.5328931891 57.9051041312 63.758499598
437 25 2 59.7016255524 57.3123986316 63.9349771265
438 25 2 58.9350875303 56.6236202373 63.8279547205
439 25 2 58.3111489025 55.8856426238 63.4544046676
440 25 2 57.8946818951 55.1498238441 62.8555925382
441 25 2 57.7316482505 54.4673251791 62.0933159387
442 25 2 57.8449099373 53.8844479239 61.2442718251
443 25 2 58.2321453433 53.4384131483 60.3930657804
444 25 2 58.8660608841 53.1539690958 59.624500442
445 25 2 59.69687874 53.0411354474 59.0158459676
446 25 2 60.656873972 53.0942900545 58.6297970671
447 25 2 61.6665474681 53.2926813826 58.5087585474
448 25 2 62.6418720757 53.6023199583 58.6709802274
449 25 2 63.5019514513 53.9790764189 59.1088935159
450 25 2 64.1763935464 54.3727037858 59.7898012685
451 26 1 41.2377028541 75.9227120134 12.7036420169
452 26 1 36.8435736747 79.2693555118 12.605677171
453 26 2 41.5741419167 75.9660352447 12.2651064506
454 26 2 42.0031096942 76.0228528806 11.3237200192
455 26 2 42.1385649896 76.0597882496 10.297202775
456 26 2 41.9678387231 76.0923983929 9.27581199197
457 26 2 41.5061694462 76.1366345842 8.34933768077
458 26 2 40.7953143879 76.207388414 7.59891846938
459 26 2 39.8997433952 76.3171344611 7.08964603399
460 26 2 38.900762679 76.4747932677 6.86463216665
461 26 2 37.8891039699 76.6849182563 6.94107925072
462 26 2 36.9566545638 76.9472806969 7.30871230957
463 26 2 36.1880820402 77.2568905555 7.93071554322
464 26 2 35.653117039 77.6044513221 8.74708799016
465 26 2 35.4001974985 77.9772073631 9.68011245456
466 26 2 35.4520536674 78.3601065627 10.641439221
467 26 2 35.8036363029 78.7371722835 11.5401388949
468 26 2 36.4225768958 79.092959594 12.2909903737
469 27 1 68.8888010211 6.99573495083 33.2871849105
470 27 1 64.6780213902 8.03933959048 36.7074502976
471 27 2 68.7707516216 7.0495245619 32.7481555931
472 27 2 68.367439444 7.0119440567 31.7945429861
473 27 2 67.7499845638 6.81136108616 30.9870988989
474 27 2 66.9630554872 6.481366016 30.3994800655
475 27 2 66.0667678407 6.06734477892 30.0853067357
476 27 2 65.131204992 5.62234206816 30.0732753324
477 27 2 64.2300301385 5.20222645546 30.3645428495
478 27 2 63.4337721037 4.86059812012 30.9326213949
479 27 2 62.8033968237 4.64390333587 31.7257924912
480 27 2 62.3847504647 4.58720101716 32.6718210766
481 27 2 62.2043806677 4.71096719287 33.6845395376
482 27 2 62.2671168018 5.01922867093 34.6717016569
483 27 2 62.5556297806 5.49919600558 35.5433906094
484 27 2 63.0320115613 6.12242922117 36.2202146406
485 27 2 63.6412303622 6.84743003991 36.6405434126
486 27 2 64.3161466623 7.62342433898 36.7661254449
487 28 1 11.07901871 33.0283413341 18.7836257233
488 28 1 7.42194370519 35.7302292947 21.9210761084
489 28 2 11.6017368406 33.2079888267 18.8269168589
490 28 2 12.4809273296 33.7544197556 18.8703603297
491 28 2 13.1640737917 34.533334632 18.8776086275
492 28 2 13.5901321755 35.4776897809 18.8667634655
493 28 2 13.7214913211 36.5053620884 18.8575757279
494 28 2 13.5474011164 37.5266343043 18.8696452288
495 28 2 13.0849523411 38.4523725297 18.9206342418
496 28 2 12.3775188881 39.2021505336 19.0246576313
497 28 2 11.4908043487 39.7115803889 19.1909963197
498 28 2 10.506853306 39.9381812597 19.4232513565
499 28 2 9.51657319073 39.8652514164 19.7190156925
500 28 2 8.61144831149 39.5033905532 20.0700935753
501 28 2 7.87520130476 38.8895336544 20.4632475708
502 28 2 7.3761620403 38.0835844698 20.8814051194
503 28 2 7.16103953618 37.1629554472 21.3052146547
504 28 2 7.25066455659 36.2155117955 21.7148094468
505 29 1 70.3022531273 81.6090899154 65.680457378
506 29 1 70.5687115973 77.8390244612 69.7095512483
507 29 2 70.0511204035 82.0831530773 65.8203790047
508 29 2 69.4124929247 82.8252792141 66.1592798038
509 29 2 68.6108877233 83.3236272581 66.5865131585
510 29 2 67.7254689323 83.5352370314 67.0811896988
511 29 2 66.843040069 83.443283783 67.6162727882
512 29 2 66.0501321272 83.0586117203 68.1610428416
513 29 2 65.4251165077 82.4187455878 68.6838973329
514 29 2 65.031061675 81.5844703877 69.1552312809
515 29 2 64.909984635 80.6342909891 69.5501356641
516 29 2 65.0790211977 79.6572766187 69.8506678118
517 29 2 65.5288640933 78.7449424396 70.0474868301
518 29 2 66.2246113056 77.9829081879 70.1407049999
519 29 2 67.1089472969 77.4430941635 70.1398775422
520 29 2 68.1073671665 77.1771658861 70.0631316859
521 29 2 69.134967573 77.2118249218 69.9355144188
522 29 2 70.1041854473 77.5463751065 69.786709522
523 30 1 42.7170159893 76.7098332204 18.7441806305
524 30 1 38.5861525658 73.2765566415 17.4532234778
525 30 2 42.8737215873 76.6972283579 19.2758441153
526 30 2 42.9363399126 76.6997980771 20.3100212534
527 30 2 42.6944141365 76.7202194562 21.3172475921
528 30 2 42.1685390709 76.737906451 22.2097679542
529 30 2 41.4051907462 76.7325222489 22.9102823058
530 30 2 40.4724902458 76.6858329155 23.3589914475
531 30 2 39.4539946513 76.5833693686 23.5190475521
532 30 2 38.4410810376 76.4157461963 23.3799127448
533 30 2 37.5246176973 76.1795171127 22.9583196032
534 30 2 36.7866817381 75.8774890772 22.2967460267
535 30 2 36.2930779742 75.5184664477 21.4595434903
536 30 2 36.0873409932 75.1164484874 20.527071579
537 30 2 36.1867670949 74.6893533684 19.5883734268
538 30 2 36.5808377796 74.2573849793 18.733059673
539 30 2 37.2321784816 73.841191394 18.0431406917
540 30 2 38.0799651605 73.4599828553 17.5855515657
541 31 1 82.2112711159 37.3217375308 26.4874127195
542 31 1 84.948069502 33.8781826043 29.8295460387
543 31 2 81.7480887148 37.537330221 26.7027344398
544 31 2 80.8336414557 37.7157947523 27.1559304599
545 31 2 79.9336520587 37.5916524959 27.6539844697
546 31 2 79.1353492173 37.1791737206 28.1697594638
547 31 2 78.5166931672 36.5189097983 28.6745032163
548 31 2 78.1392698191 35.6739970548 29.1404689697
549 31 2 78.0426773681 34.7244020623 29.5434444775
550 31 2 78.2409170231 33.7596329003 29.8649588854
551 31 2 78.7211168348 32.8705807334 30.093966301
552 31 2 79.4447049394 32.1412353242 30.2278525968
553 31 2 80.3509252804 31.6410295914 30.2726736812
554 31 2 81.3623753613 31.4185109846 30.2426035184
555 31 2 82.3920612759 31.496916514 30.15864221
556 31 2 83.3513269708 31.8720547591 30.0467018911
557 31 2 84.1579350069 32.5126879055 29.935244909
558 31 2 84.7435622832 33.3633789882 29.852689556
559 32 1 36.148283519 44.542740659 30.6154273425
560 32 1 31.2636323301 43.6846052351 33.0488975843
561 32 2 36.1376022738 44.5354962333 30.0611575369
562 32 2 36.0034767788 44.3187170731 29.0569328816
563 32 2 35.7181172132 43.8633928188 28.1711000796
564 32 2 35.2908340216 43.2197796283 27.480708056
565 32 2 34.7438736074 42.4552956927 27.044991831
566 32 2 34.1103906333 41.6483762486 26.8999734064
567 32 2 33.4314260621 40.8813244156 27.0551784568
568 32 2 32.7521663822 40.2328094873 27.4927680891
569 32 2 32.1178249809 39.7706964351 28.1691648105
570 32 2 31.5695210641 39.5458601977 29.0190245003
571 32 2 31.1405317511 39.5875485662 29.9611923518
572 32 2 30.8532589539 39.9007163264 30.9060999161
573 32 2 30.7171875029 40.4655736429 31.7639290269
574 32 2 30.7280206299 41.2393898503 32.452798486
575 32 2 30.868071607 42.1603882385 32.906227316
576 32 2 31.1078758448 43.1533768352 33.0791943236
577 33 1 65.7117702161 26.2842902071 39.4581209896
578 33 1 64.6626852672 31.3706252971 37.5748771967
579 33 2 66.1681969703 26.2401070531 39.7697362251
580 33 2 67.1222864637 26.270942622 40.1724922523
581 33 2 68.1304087432 26.4600578257 40.318693895
582 33 2 69.100166982 26.8066089184 40.2050219566
583 33 2 69.9426611329 27.2954022938 39.8518440225
584 33 2 70.5805909302 27.8982793416 39.3013580098
585 33 2 70.9553016022 28.5766830297 38.6137459394
586 33 2 71.0321300972 29.2851722748 37.861688506
587 33 2 70.8035645275 29.9755637753 37.1237404268
588 33 2 70.2899288583 30.6013237906 36.4771703891
589 33 2 69.5375304324 31.1218095674 35.9909182158
590 33 2 68.6144391796 31.5059738177 35.7193111853
591 33 2 67.604283225 31.7351945965 35.6971122445
592 33 2 66.5986264081 31.8049726419 35.93635146
593 33 2 65.6886224843 31.7253414711 36.4252295088
594 33 2 64.9567067035 31.519952852 37.1291931557