LAMMPS input file for bananas

4320 atoms

2 atom types

0 63.4960420787 xlo xhi
0 63.4960420787 ylo yhi
0 63.4960420787 zlo zhi

Masses

 1 1
 2 1

Atoms

1 1 1 43.4335603777 58.0500459556 63.2161072914
2 1 1 46.8219332894 62.4129721466 63.1737383845
3 1 2 43.6407277078 57.5911334247 62.9840241717
4 1 2 44.0776823425 56.8785223981 62.3718916835
5 1 2 44.5595761788 56.4115608883 61.5824771599
6 1 2 45.0608363871 56.2335293676 60.6933804316
7 1 2 45.5541249444 56.3613731123 59.7912870953
8 1 2 46.0128304227 56.7841576856 58.9640673542
9 1 2 46.4134935489 57.4640655824 58.2927668833
10 1 2 46.7379454556 58.3398431942 57.8442197328
11 1 2 46.9749637239 59.3323839111 57.6649565832
12 1 2 47.1212952776 60.3519384787 57.776963598
13 1 2 47.1819528921 61.3062954019 58.1756784436
14 1 2 47.1697582934 62.1091857768 58.8304061341
15 1 2 47.1041734921 62.6881464706 59.6871167971
16 1 2 47.0095268727 62.9911249424 60.6733703518
17 1 2 46.9127957273 62.9912236931 61.7049192295
18 1 2 46.8411473464 62.6891519006 62.6933873134
19 2 1 37.5825780692 40.3438593986 45.1634816983
20 2 1 33.6348432257 39.1017915532 48.8228051514
21 2 2 37.6652811238 40.8863117341 45.084189476
22 2 2 37.5864671203 41.9040153269 44.9066570531
23 2 2 37.2097947143 42.8510403573 44.7203468237
24 2 2 36.5674311464 43.647983889 44.5600344251
25 2 2 35.7157606964 44.2291225132 44.4581258618
26 2 2 34.730245407 44.5484028616 44.4417037849
27 2 2 33.6985469202 44.583639248 44.5300589806
28 2 2 32.7125363531 44.3385358339 44.7329320669
29 2 2 31.859920491 43.8423490046 45.049625662
30 2 2 31.2162475483 43.1472207274 45.4690679492
31 2 2 30.8380211509 42.323425951 45.9708218428
32 2 2 30.7575501814 41.4529672314 46.5269477744
33 2 2 30.9800039111 40.6221004186 47.1045503097
34 2 2 31.4829408346 39.9134726659 47.6687764791
35 2 2 32.218354153 39.398589363 48.1859925332
36 2 2 33.1170474655 39.131296611 48.6268495691
37 3 1 57.109482441 4.62407642529 7.88651843974
38 3 1 54.8614089987 6.08510070942 12.7165872695
39 3 2 57.0730610883 5.00647490782 7.4867354065
40 3 2 56.7777620535 5.72423565217 6.80039146569
41 3 2 56.2141241263 6.40216601594 6.25617393553
42 3 2 55.4363390153 6.99471527776 5.91355796304
43 3 2 54.5181173724 7.4641149755 5.81364325209
44 3 2 53.5459702641 7.78382140065 5.97540793524
45 3 2 52.611323919 7.9409349864 6.39397876769
46 3 2 51.8021864711 7.93737606869 7.04107531051
47 3 2 51.1951262542 7.78970985269 7.86758761706
48 3 2 50.8482928024 7.52763653866 8.80805247338
49 3 2 50.7961166758 7.19128422805 9.78662019518
50 3 2 51.0461712068 6.82755135433 10.7239681238
51 3 2 51.5784822112 6.48583201611 11.5445306745
52 3 2 52.3473485815 6.21351383707 12.1833869378
53 3 2 53.2855078211 6.05165871074 12.5921780464
54 3 2 54.3102668406 6.03126011862 12.7435149572
55 4 1 33.629703019 5.08598793183 8.92371689047
56 4 1 37.3545432085 7.07295669666 12.4867930547
57 4 2 33.4941240757 4.55384649793 9.00004141156
58 4 2 33.4738855553 3.52795478497 9.14352174727
59 4 2 33.7571539708 2.5425922511 9.29275208206
60 4 2 34.3179155931 1.68630932765 9.45330104381
61 4 2 35.1048639291 1.03589118444 9.62970559784
62 4 2 36.0460761711 0.64935896678 9.82505751458
63 4 2 37.0555687689 0.560681323204 10.040721563
64 4 2 38.0411346001 0.776678253895 10.2762111156
65 4 2 38.9127474035 1.27639948592 10.529232503
66 4 2 39.5907674314 2.0130340346 10.7958940762
67 4 2 40.0132004004 2.91817689968 11.0710609195
68 4 2 40.1413481045 3.90806399822 11.3488228846
69 4 2 39.9633356526 4.89120703691 11.6230332849
70 4 2 39.4951938341 5.77673242548 11.8878691494
71 4 2 38.7793979543 6.48266416156 12.1383619709
72 4 2 37.8809963244 6.94339572417 12.3708505722
73 5 1 32.299492327 62.2067096571 26.0514821968
74 5 1 32.682971995 58.5315546437 30.1580829849
75 5 2 31.7985166676 62.4358744326 25.9891244994
76 5 2 30.7891490399 62.6405880969 25.8763445406
77 5 2 29.7612546061 62.5410153841 25.7928680827
78 5 2 28.8028975489 62.148332182 25.7645543957
79 5 2 27.995803905 61.500430616 25.8122348109
80 5 2 27.4079124552 60.6584652835 25.9498139999
81 5 2 27.0871822863 59.7012791752 26.1830026016
82 5 2 27.0572214483 58.7182173476 26.5087967124
83 5 2 27.315135144 57.8009833601 26.915751684
84 5 2 27.8317895817 57.0352807402 27.3850252727
85 5 2 28.5544674427 56.4930013363 27.8920950593
86 5 2 29.4116729239 56.2256725679 28.4089936023
87 5 2 30.3196483892 56.2597608387 28.9068575951
88 5 2 31.1900086542 56.5942591952 29.3585586797
89 5 2 31.9377970593 57.2007791074 29.7411761237
90 5 2 32.4892290425 58.0261380075 30.038085984
91 6 1 55.973509798 25.6503724981 32.5492733157
92 6 1 53.395156775 22.5536209772 36.3281907226
93 6 2 55.9295617078 26.1976541533 32.6262989168
94 6 2 55.6178593207 27.1723586577 32.7882950968
95 6 2 55.0347208204 28.0077391488 32.9768128295
96 6 2 54.2344730626 28.6290045424 33.1937986543
97 6 2 53.2912318318 28.9808797726 33.43860432
98 6 2 52.292146385 29.0326439672 33.7080458711
99 6 2 51.3294560307 28.7809305728 33.9966938572
100 6 2 50.4920827616 28.2500342068 34.2973682126
101 6 2 49.8575262532 27.4896962687 34.6017927002
102 6 2 49.4847999753 26.5705711437 34.9013492684
103 6 2 49.4090522721 25.5777862448 35.1878635633
104 6 2 49.6383626843 24.6031828766 35.4543499996
105 6 2 50.1530055208 23.7369451457 35.6956484776
106 6 2 50.9072478028 23.0593799204 35.9088947126
107 6 2 51.8335177022 22.6335970746 36.0937813072
108 6 2 52.8485635336 22.4997571912 36.252585769
109 7 1 41.0533452134 7.00325594001 39.5047683377
110 7 1 44.1897922293 3.12872699755 41.8856750246
111 7 2 40.5906834475 7.13201519587 39.7818003438
112 7 2 39.6944580232 7.13954066631 40.3015823822
113 7 2 38.8342909364 6.8438629894 40.7977046506
114 7 2 38.0946286163 6.27122916966 41.2431708917
115 7 2 37.548933805 5.47313002382 41.6156020095
116 7 2 37.2529896245 4.52160693043 41.8992758644
117 7 2 37.2398150943 3.50268545082 42.086560304
118 7 2 37.5166555361 2.50853432908 42.1786088136
119 7 2 38.064322182 1.62906455738 42.1852553788
120 7 2 38.8389411794 0.943734229354 42.1241181444
121 7 2 39.7759525757 0.514306147229 42.0189935671
122 7 2 40.7959947848 0.379218307492 41.8976874326
123 7 2 41.8121381843 0.550080380233 41.789480432
124 7 2 42.7378085176 1.01061551875 41.7224593057
125 7 2 43.4946779065 1.71814395064 41.7209568115
126 7 2 44.0198042274 2.60747312494 41.8033338589
127 8 1 6.16139327906 22.0848396918 52.3752514998
128 8 1 0.64228842903 22.1490456933 52.1442746501
129 8 2 6.40684408901 21.7532522921 52.0048661812
130 8 2 6.71366797305 20.9739054878 51.3950074483
131 8 2 6.78973219757 20.0523439771 50.9276867588
132 8 2 6.616990049 19.0750968263 50.6300323157
133 8 2 6.20007284963 18.133768699 50.5137076972
134 8 2 5.56586782505 17.3166903359 50.5738487526
135 8 2 4.76106740534 16.7008674437 50.7895069569
136 8 2 3.84791333489 16.3449618309 51.1255588123
137 8 2 2.89852350374 16.2839445405 51.5359072617
138 8 2 1.98831859468 16.5259083333 51.9676833121
139 8 2 1.18914768958 17.0513300541 52.3660649017
140 8 2 0.562739417611 17.8148501152 52.6792737847
141 8 2 0.155075555704 18.7494069013 52.8632949799
142 8 2 -0.00780008754985 19.7723492573 52.8858886184
143 8 2 0.0778445045763 20.792969919 52.7295285218
144 8 2 0.393089393591 21.720773239 52.3929996662
145 9 1 3.10403984656 60.2764492519 58.953619818
146 9 1 6.94043216058 57.0103728827 56.6880447862
147 9 2 3.1283242714 60.3168786344 59.5060302811
148 9 2 3.17870139723 60.1574509825 60.5285247702
149 9 2 3.24750186475 59.7065635198 61.4588026872
150 9 2 3.34742079104 59.0055433985 62.2151339697
151 9 2 3.48831692886 58.1185166943 62.7316433263
152 9 2 3.67631406764 57.1265634854 62.964314593
153 9 2 3.91324286649 56.1203276207 62.8950026889
154 9 2 4.19647399445 55.1917547749 62.5330874924
155 9 2 4.51915778705 54.4257118463 61.9146188896
156 9 2 4.87084857487 53.8922515653 61.099030924
157 9 2 5.23845677841 53.640227376 60.1637245422
158 9 2 5.60744198826 53.6928405747 59.1970127044
159 9 2 5.96313828459 54.045525574 58.2900708941
160 9 2 6.29209099649 54.6663660441 57.5286267168
161 9 2 6.58328305931 55.4990040005 56.9851460573
162 9 2 6.82913919063 56.4677766842 56.7122280086
163 10 1 45.0228585051 11.1349556218 16.4726280977
164 10 1 43.5257873354 10.3414162801 21.7306756714
165 10 2 44.8283276027 11.6001023513 16.2420248972
166 10 2 44.2586820842 12.3927589007 15.8946784002
167 10 2 43.4687696792 13.0330332247 15.695838782
168 10 2 42.5318483919 13.4749820043 15.6782379674
169 10 2 41.5345756929 13.6907387641 15.8580884487
170 10 2 40.5691099229 13.6730538266 16.2336055603
171 10 2 39.7247103059 13.4359551011 16.7851701463
172 10 2 39.0796012098 13.0134694773 17.4771167938
173 10 2 38.693842204 12.4565213651 18.2609846404
174 10 2 38.6038537904 11.8282910709 19.079934452
175 10 2 38.819097772 11.1984560814 19.8739293673
176 10 2 39.3212148348 10.636840147 20.585207097
177 10 2 40.06569795 10.2070490336 21.1635448021
178 10 2 40.9859490713 9.960673027 21.5708367716
179 10 2 41.999349368 9.9325846162 21.7845676561
180 10 2 43.0147897112 10.1377599593 21.7998646819
181 11 1 39.3048244186 25.4508048682 44.4386970026
182 11 1 37.0355467612 30.3780035435 45.4832462782
183 11 2 39.4706593535 25.3763241789 43.9149289343
184 11 2 39.563560138 25.3121978871 42.8850224948
185 11 2 39.3737362456 25.365103494 41.8678608077
186 11 2 38.9254753064 25.5475720424 40.9517727276
187 11 2 38.266620797 25.8603252597 40.2158745202
188 11 2 37.4642112347 26.2922097735 39.7228586257
189 11 2 36.5983697965 26.8212137126 39.5132794108
190 11 2 35.7550013049 27.4164730295 39.6018567463
191 11 2 35.0179622339 28.0410846761 39.9761343303
192 11 2 34.4614174146 28.6554702179 40.5976150472
193 11 2 34.1430801098 29.2209833025 41.405269876
194 11 2 34.0989516037 29.7034321716 42.3211005235
195 11 2 34.3400397817 30.0761961479 43.2572487594
196 11 2 34.8513557905 30.3226520388 44.1240044598
197 11 2 35.5932802325 30.4376892964 44.8379824447
198 11 2 36.5051743676 30.4281758297 45.3297228147
199 12 1 39.1215297439 55.896624514 10.4112090437
200 12 1 37.1925577467 61.041363164 9.83786593627
201 12 2 38.7371915168 55.5148421643 10.5291410269
202 12 2 37.9572219109 54.9541719693 10.9174017094
203 12 2 37.1473966017 54.6414409306 11.4829388675
204 12 2 36.3667402632 54.6110590923 12.1634553156
205 12 2 35.6716188956 54.8717011236 12.8861738134
206 12 2 35.1106022153 55.405515646 13.5744705164
207 12 2 34.7200366549 56.1697523384 14.1548590347
208 12 2 34.5207324827 57.1006585147 14.5636885212
209 12 2 34.516067003 58.1192900111 14.7529452757
210 12 2 34.6916767234 59.138706735 14.6946290659
211 12 2 35.0167665486 60.0718970226 14.3833052734
212 12 2 35.4469166718 60.8397085193 13.8366002449
213 12 2 35.9281313202 61.3780627053 13.0935946973
214 12 2 36.4017603266 61.6437954813 12.2112616154
215 12 2 36.8098449343 61.6185914608 11.2592733164
216 12 2 37.1004005837 61.3106533689 10.3136510042
217 13 1 45.4481604418 16.2535481188 31.4133588804
218 13 1 43.6918321757 12.6995908787 35.2607852954
219 13 2 45.9496214466 16.4705475842 31.5073252613
220 13 2 46.7971973011 16.9227263589 31.895396824
221 13 2 47.4687072881 17.3863833064 32.5337905767
222 13 2 47.9123895362 17.8042180341 33.3716510748
223 13 2 48.0972480635 18.1231067218 34.3399420129
224 13 2 48.0158779784 18.2989442166 35.3577386998
225 13 2 47.6851404159 18.3006640995 36.3396041274
226 13 2 47.1446256899 18.1130703064 37.203376326
227 13 2 46.4530447423 17.7382222088 37.8776572079
228 13 2 45.682877797 17.1952469075 38.3083203127
229 13 2 44.9137679818 16.5185958487 38.463444289
230 13 2 44.2252620699 15.7549046666 38.3362224407
231 13 2 43.689560004 14.9587424697 37.9455831389
232 13 2 43.3649340648 14.1876380131 37.3344645516
233 13 2 43.2904175082 13.4968361056 36.5659009442
234 13 2 43.4822467883 12.9342621935 35.717277275
235 14 1 24.7768131464 21.2616819214 29.7725816209
236 14 1 21.9640422515 19.3208691808 34.1130374564
237 14 2 24.4927014518 21.608213948 29.4461192378
238 14 2 23.7998725883 22.0852074749 28.8412098625
239 14 2 22.9443033128 22.3113238341 28.3023939215
240 14 2 21.9937867179 22.2759508149 27.8916422162
241 14 2 21.0247700901 21.9923102644 27.6592528351
242 14 2 20.1153869449 21.4962529518 27.6392666175
243 14 2 19.3383353649 20.8429908661 27.8463644222
244 14 2 18.7542517645 20.1020647916 28.2745290061
245 14 2 18.4061840422 19.3510058506 28.8975934803
246 14 2 18.3156678804 18.6682687492 29.6716263517
247 14 2 18.4807638248 18.1260808403 30.5389357612
248 14 2 18.8762340611 17.7838587938 31.4333279426
249 14 2 19.4558427738 17.6827929255 32.2861406077
250 14 2 20.1565704175 17.8420928102 33.0325013296
251 14 2 20.90435778 18.2572363801 33.6172404919
252 14 2 21.6208562816 18.9003820995 33.9999198512
253 15 1 18.3305648631 45.7019003432 14.3127443661
254 15 1 16.0545274909 41.820990176 11.1070960361
255 15 2 18.1862763872 46.2223844668 14.1876096353
256 15 2 17.9774685619 47.1310377757 13.7357263898
257 15 2 17.848605763 47.8820684204 13.0337311185
258 15 2 17.7928983453 48.4049292556 12.141003141
259 15 2 17.796888746 48.6498702042 11.1343065534
260 15 2 17.841678106 48.5924728441 10.1007933858
261 15 2 17.9046488498 48.2358760818 9.13005992823
262 15 2 17.9615262175 47.6104900496 8.30598026763
263 15 2 17.9885908442 46.7712243036 7.69906138946
264 15 2 17.9648407165 45.7924829638 7.36001665427
265 15 2 17.8739054502 44.7613829781 7.31514341042
266 15 2 17.7055384069 43.7698136449 7.56392606111
267 15 2 17.4565506476 42.9060611492 8.0790830596
268 15 2 17.1311015962 42.246761513 8.80905354932
269 15 2 16.740319919 41.8499154266 9.68269699812
270 15 2 16.3012891764 41.7496016408 10.6157774676
271 16 1 35.0646300886 15.8887731948 30.9574998422
272 16 1 31.3818219525 16.72647514 26.9259777047
273 16 2 35.5855586522 16.0303546816 30.8311285548
274 16 2 36.5195839238 16.1644425245 30.4032649627
275 16 2 37.3252349115 16.1321500412 29.7526239766
276 16 2 37.9263788112 15.9523747507 28.9281502852
277 16 2 38.2655230934 15.6574568353 27.9946329633
278 16 2 38.3090557933 15.2902314201 27.0268001215
279 16 2 38.050309152 14.9001242655 26.1025076382
280 16 2 37.5101673644 14.5386467412 25.2956428045
281 16 2 36.735163041 14.2547007027 24.6693896951
282 16 2 35.7932358846 14.0901212177 24.2704701087
283 16 2 34.7675401682 14.0758634117 24.1248850012
284 16 2 33.7488654451 14.2291809909 24.2355445675
285 16 2 32.8273613239 14.552053613 24.5820029858
286 16 2 32.0843205723 15.0310064467 25.1223219988
287 16 2 31.5847694992 15.6383383666 25.7968934743
288 16 2 31.3715409798 16.3346468368 26.5338725269
289 17 1 28.1381866523 11.2725855069 57.504843927
290 17 1 23.3926521807 8.47946865575 57.948005179
291 17 2 28.1646625556 11.7373701502 57.8059350261
292 17 2 28.0071396007 12.6518695117 58.2667250518
293 17 2 27.5863667319 13.5480565014 58.5720921809
294 17 2 26.9315707062 14.3390034359 58.7102772838
295 17 2 26.0933088662 14.9473749817 58.684759426
296 17 2 25.138860973 15.3124770638 58.5139387602
297 17 2 24.1460968357 15.3957889686 58.2294594016
298 17 2 23.196378687 15.1844744042 57.8733251516
299 17 2 22.3671452324 14.6925514937 57.4940709635
300 17 2 21.72485332 13.9596150611 57.1423391109
301 17 2 21.3189205757 13.0472276686 56.8662632802
302 17 2 21.1772211189 12.0333083539 56.7070813138
303 17 2 21.3035449112 11.005030518 56.6953764906
304 17 2 21.6772523115 10.0508763027 56.8482899421
305 17 2 22.2551553238 9.25257168001 57.1679582841
306 17 2 22.975454068 8.67763734793 57.6413188697
307 18 1 32.0396693237 22.6008879964 32.3236175297
308 18 1 36.8884951532 21.6985660316 29.8351050809
309 18 2 32.0555206228 22.5881597464 32.8776647444
310 18 2 32.196153951 22.3598823816 33.8784453012
311 18 2 32.4835435791 21.8921365637 34.7571210449
312 18 2 32.9083489786 21.2360422611 35.4372171043
313 18 2 33.4487045405 20.4598869033 35.8603586152
314 18 2 34.0722125677 19.6429011638 35.9915914342
315 18 2 34.7388962378 18.8680372967 35.8225681147
316 18 2 35.4048433841 18.2144082595 35.3723087546
317 18 2 36.0262089721 17.7500767795 34.6854673655
318 18 2 36.5632114571 17.5258516172 33.8282617781
319 18 2 36.9837587657 17.5706564842 32.882438065
320 18 2 37.2663734028 17.8888937239 31.9378196038
321 18 2 37.4021500674 18.4600430498 31.0841199166
322 18 2 37.3955673475 19.2405319148 30.4027655222
323 18 2 37.2640795081 20.1677070321 29.9594741269
324 18 2 37.0365255825 21.1655450552 29.7982646307
325 19 1 60.1775687441 21.3400310608 50.8798975885
326 19 1 56.8887668811 18.8356325448 54.5445614803
327 19 2 60.4460092365 21.7851070431 51.0728448871
328 19 2 60.733384808 22.6813723599 51.5059427676
329 19 2 60.7237349786 23.5846528135 52.0133295176
330 19 2 60.4222821207 24.4071007897 52.5666427309
331 19 2 59.8608456725 25.0682363383 53.1333339274
332 19 2 59.0949418816 25.5022827057 53.6796352593
333 19 2 58.1987236476 25.6641617103 54.1736373606
334 19 2 57.258221683 25.5336024983 54.5881978002
335 19 2 56.3635030444 25.1169891775 54.9034150423
336 19 2 55.6004617601 24.4467789232 55.1084424179
337 19 2 55.0429898199 23.5785435935 55.2024767701
338 19 2 54.7462421172 22.5859045028 55.194831659
339 19 2 54.7416092278 21.5538220358 55.1040884564
340 19 2 55.0338562434 20.5708517355 54.9564027028
341 19 2 55.6006884456 19.7210727022 54.7831201002
342 19 2 56.3947834101 19.0764240083 54.6179194347
343 20 1 44.5634706002 44.5462303843 5.06954201507
344 20 1 42.6395235886 40.8102349887 8.65545296798
345 20 2 44.1782492211 44.8786161322 4.84930171064
346 20 2 43.3476534021 45.2971297421 4.39278560482
347 20 2 42.4304775909 45.4220172855 3.92733781605
348 20 2 41.4986940795 45.2448672117 3.51038775842
349 20 2 40.6256066129 44.7847978918 3.19494440748
350 20 2 39.8791689481 44.08671503 3.02476467375
351 20 2 39.3157910515 43.2172186284 3.03036507729
352 20 2 38.9751974808 42.2585325755 3.22624024848
353 20 2 38.8768065978 41.3010101578 3.60954178119
354 20 2 39.0179606367 40.4348985998 4.16033785738
355 20 2 39.3741679524 39.7421132703 4.84342997905
356 20 2 39.9013353682 39.2887713157 5.61156121723
357 20 2 40.5397871515 39.1191652588 6.4097235548
358 20 2 41.2197042967 39.2517258535 7.18017172018
359 20 2 41.8674883416 39.6773421713 7.86768651451
360 20 2 42.41246967 40.3601920375 8.42460789404
361 21 1 58.9122014398 11.2510526946 52.5646636292
362 21 1 54.3556123635 14.3209334918 53.1402667412
363 21 2 59.3821342106 11.5392740093 52.5057293206
364 21 2 60.1383433137 12.1914548307 52.2295808466
365 21 2 60.6733874235 12.9507937778 51.7706885114
366 21 2 60.9356211997 13.7627402486 51.1829586532
367 21 2 60.8982652351 14.5679486061 50.5320408057
368 21 2 60.5618469264 15.307687374 49.8893439191
369 21 2 59.9541524038 15.9291924544 49.3255276251
370 21 2 59.1276938993 16.3904764339 48.9040617999
371 21 2 58.1549233971 16.6641556242 48.6754414553
372 21 2 57.1216288289 16.7399460121 48.6725842528
373 21 2 56.1191147333 16.6256006199 48.9078301469
374 21 2 55.2358800912 16.346202838 49.3718166311
375 21 2 54.5495518799 15.941880141 50.0343321058
376 21 2 54.119809582 15.4641465756 50.8470695844
377 21 2 53.9829455597 14.971207393 51.748029746
378 21 2 54.1485571035 14.5226537957 52.6671720082
379 22 1 12.3287517749 16.0376438214 10.0526117865
380 22 1 10.5785720657 21.2695263345 10.3394347576
381 22 2 12.2079964552 15.7765895283 9.57863879478
382 22 2 11.7651384288 15.368351239 8.73562736021
383 22 2 11.0785598392 15.1078257897 8.00474683525
384 22 2 10.2133804102 15.0327547929 7.43969912733
385 22 2 9.25099885479 15.1639761833 7.07907092585
386 22 2 8.28167360002 15.5035248957 6.94281662855
387 22 2 7.39629597257 16.0344473866 7.03043955151
388 22 2 6.67810569725 16.7223469039 7.32103720055
389 22 2 6.19510381858 17.5185186593 7.77520647773
390 22 2 5.99385458733 18.3643891392 8.33863516836
391 22 2 6.09524125353 19.196854924 8.94705235428
392 22 2 6.492562614 19.9540343966 9.53208653618
393 22 2 7.15214380918 20.5809080857 10.0274975131
394 22 2 8.0164056965 21.034333544 10.3752139997
395 22 2 9.00911303538 21.2869776669 10.5306266686
396 22 2 10.0423231257 21.3298080319 10.4666541715
397 23 1 54.622047249 14.0140261884 35.3337674928
398 23 1 51.4673496243 16.6207100291 39.0447071734
399 23 2 55.1449474401 14.1957037992 35.30294179
400 23 2 56.0194832885 14.7461610313 35.2278825025
401 23 2 56.694217358 15.5287181165 35.1518012628
402 23 2 57.1116473627 16.4755699326 35.1000920686
403 23 2 57.2377235944 17.5039363318 35.0959274709
404 23 2 57.0649524626 18.5236073302 35.1581464579
405 23 2 56.6130795152 19.4451655061 35.2995373313
406 23 2 55.9272896848 20.1881361595 35.5256720871
407 23 2 55.0740888024 20.6883223658 35.8343985428
408 23 2 54.1352417691 20.9036563538 36.2160365032
409 23 2 53.2003199037 20.8180338706 36.6542600846
410 23 2 52.3585367566 20.4427820414 37.1275857748
411 23 2 51.6906165326 19.815626932 37.6113305984
412 23 2 51.2614362962 18.997254919 38.0798619039
413 23 2 51.1141125998 18.0657812887 38.5089337111
414 23 2 51.2660715256 17.1096302376 38.8778966678
415 24 1 11.3321565819 39.028479104 57.9793355467
416 24 1 11.7752246922 40.4032192225 52.6471904514
417 24 2 10.9940005855 38.6015726715 58.0831768104
418 24 2 10.2110273512 37.9258140514 58.1444402826
419 24 2 9.29828744836 37.4526266917 58.0161842751
420 24 2 8.34263404507 37.2135576454 57.6952129756
421 24 2 7.43483176037 37.2188147073 57.1958960559
422 24 2 6.66128371173 37.4563360004 56.548858914
423 24 2 6.09615610181 37.8928893836 55.7981912516
424 24 2 5.79461816737 38.477101473 54.9974284154
425 24 2 5.78781365074 39.1441401882 54.2046717931
426 24 2 6.08002213097 39.8216240232 53.4772930276
427 24 2 6.64826895165 40.4362194274 52.8667047447
428 24 2 7.44441929941 40.9203249623 52.4136744301
429 24 2 8.39956556353 41.2182329924 52.1446085815
430 24 2 9.43030808048 41.2912072872 52.0691458275
431 24 2 10.4463567903 41.1210137248 52.1792783919
432 24 2 11.3587609343 40.7115822836 52.4500819814
433 25 1 6.87129290613 7.27800428599 3.75501137367
434 25 1 7.77667779669 1.87714696405 3.02768101591
435 25 2 6.76345904323 7.42847548155 4.27761243124
436 25 2 6.40476839111 7.53495911914 5.24376576389
437 25 2 5.8812802035 7.39693816388 6.12714583188
438 25 2 5.2526330957 7.01561365592 6.85710777928
439 25 2 4.58805063752 6.41436310396 7.37699040183
440 25 2 3.96003180991 5.63660968778 7.64928066419
441 25 2 3.43774291662 4.74186435152 7.65903291292
442 25 2 3.08071326047 3.80030154011 7.41523113284
443 25 2 2.93340920652 2.88636298622 6.94997008076
444 25 2 3.02118119175 2.07197254527 6.31552993426
445 25 2 3.34795310046 1.41998052828 5.57961109319
446 25 2 3.89586461269 0.978435063959 4.81916346918
447 25 2 4.62689912473 0.77620264021 4.11337270686
448 25 2 5.48634886083 0.820337000928 3.53644262401
449 25 2 6.40780134082 1.09543621608 3.15083173189
450 25 2 7.31919270013 1.56504652646 3.00156030887
451 26 1 24.1671183062 23.5819471484 6.47596568895
452 26 1 24.0825474316 19.9949740004 2.27543447678
453 26 2 24.0224268525 23.3697290917 6.96730006357
454 26 2 23.5664183316 22.8922386351 7.76574173578
455 26 2 22.9132962807 22.3335436384 8.34431022652
456 26 2 22.130626917 21.7271325563 8.64950570121
457 26 2 21.2977843489 21.1108430372 8.65274554502
458 26 2 20.4987158384 20.5234131225 8.35296959181
459 26 2 19.8142902324 20.0009503781 7.77673675548
460 26 2 19.3149269833 19.5736407858 6.9758042559
461 26 2 19.0541776045 19.2629973717 6.02241008666
462 26 2 19.0638445928 19.0798993519 5.00268871508
463 26 2 19.351082716 19.0236005205 4.00882015567
464 26 2 19.8977468746 19.0817972647 3.13062800823
465 26 2 20.6620459796 19.2317500058 2.44739227676
466 26 2 21.5823520982 19.4423558512 2.02062320904
467 26 2 22.5828176752 19.6769835401 1.88845480191
468 26 2 23.5802888353 19.8968122849 2.0621689894
469 27 1 38.7600622865 34.4711541933 26.393705765
470 27 1 36.4540952261 32.2655369371 30.9032245305
471 27 2 38.5300152091 34.3156157289 25.9138435803
472 27 2 38.1279186539 33.8084513869 25.1047992664
473 27 2 37.7784007558 33.061003412 24.4782142564
474 27 2 37.4946780018 32.1408271306 24.0958178376
475 27 2 37.2839698275 31.1312215925 23.9970821601
476 27 2 37.1468405845 30.1236370855 24.1956244558
477 27 2 37.0771481017 29.2093396856 24.6779658634
478 27 2 37.0626035274 28.4710925984 25.4047599916
479 27 2 37.0858914255 27.975612514 26.3143792367
480 27 2 37.1262480312 27.7674885591 27.3285319741
481 27 2 37.1613538125 27.8651181172 28.3593986312
482 27 2 37.1693678361 28.2590299563 29.317636206
483 27 2 37.1309185099 28.9127475064 30.1205216431
484 27 2 37.0308692522 29.7661136013 30.6994918196
485 27 2 36.8596981502 30.7407736436 31.0063928899
486 27 2 36.6143658571 31.7473174167 31.0178693803
487 28 1 25.6067365177 30.909373454 1.65474021183
488 28 1 24.5916405443 25.5494781435 2.52599992415
489 28 2 25.5519340266 31.2331211776 2.10146796619
490 28 2 25.2416517638 31.729806882 2.9561481634
491 28 2 24.6929609793 32.0368064403 3.77964054676
492 28 2 23.963002051 32.1148995113 4.51074344406
493 28 2 23.1254374635 31.9457299687 5.09667623783
494 28 2 22.2637376697 31.5334790122 5.49789017753
495 28 2 21.4635729819 30.904484063 5.69167314246
496 28 2 20.8050049522 30.1048381777 5.67421979084
497 28 2 20.3551889755 29.1961887897 5.46097840658
498 28 2 20.1622532552 28.2501187103 5.08524282946
499 28 2 20.2509120458 27.3416215469 4.59511781062
500 28 2 20.6202130148 26.5422662359 4.04913439309
501 28 2 21.2436240453 25.9136737256 3.51091496365
502 28 2 22.0714515675 25.5019003915 3.0433742423
503 28 2 23.0353699945 25.3332401207 2.70298477372
504 28 2 24.0546494173 25.4118276941 2.53462960573
505 29 1 57.2680387466 19.2336729495 32.6141321541
506 29 1 57.5622541693 13.72063885 32.8087686451
507 29 2 56.7586922436 19.4428423991 32.6789076838
508 29 2 55.7507406183 19.6781071126 32.6327119378
509 29 2 54.744783749 19.6829698823 32.3847660935
510 29 2 53.8251464799 19.4452612361 31.9709884915
511 29 2 53.0682858543 18.9749214385 31.4424125941
512 29 2 52.5358222596 18.3030944614 30.8605354211
513 29 2 52.2689228938 17.4792892948 30.2917122613
514 29 2 52.2845494849 16.5668673342 29.8011085651
515 29 2 52.5739122752 15.6372671594 29.4467602877
516 29 2 53.1032711841 14.7634930981 29.2742840673
517 29 2 53.8170111261 14.0134610773 29.3127193899
518 29 2 54.6427111776 13.4438082675 29.5718817182
519 29 2 55.4977455501 13.0947307565 30.0414678385
520 29 2 56.29681471 12.9863197828 30.6919949706
521 29 2 56.9597202036 13.1167304736 31.4774880448
522 29 2 57.4186745311 13.4623499994 32.3396702064
523 30 1 23.1134129682 38.1138537056 32.6085608087
524 30 1 20.5968265299 36.5585095579 37.2739319989
525 30 2 23.4171985189 38.5757975071 32.6498385452
526 30 2 23.7895001444 39.5268154471 32.8242128225
527 30 2 23.8852883153 40.5135359291 33.1253063759
528 30 2 23.7035823311 41.4440435474 33.5431442856
529 30 2 23.2686943415 42.2315465485 34.0571106959
530 30 2 22.6280133594 42.8022876677 34.6378278949
531 30 2 21.8476858791 43.1022669065 35.2498340149
532 30 2 21.0065867997 43.1021634879 35.8548152867
533 30 2 20.1891301895 42.8000083673 36.4150982371
534 30 2 19.4775751684 42.2213637053 36.8970835257
535 30 2 18.94452821 41.4169929452 37.2743084343
536 30 2 18.6463252549 40.458233861 37.5298588736
537 30 2 18.6178968404 39.4304963095 37.657911057
538 30 2 18.8695842755 38.4254773506 37.6642623231
539 30 2 19.3861970583 37.5328033054 37.5658027237
540 30 2 20.1283974495 36.831860556 37.388975541
541 31 1 27.4071976835 18.2416132841 44.7400121053
542 31 1 23.3738194213 17.1737450278 48.3607175949
543 31 2 27.4459789921 18.7719915191 44.5832430844
544 31 2 27.2878265167 19.7401804298 44.2500043728
545 31 2 26.8403300987 20.608680103 43.9051779167
546 31 2 26.1404472615 21.3075384266 43.5966150076
547 31 2 25.2481398757 21.7822656441 43.3688616116
548 31 2 24.2409087955 21.9988009505 43.2590981237
549 31 2 23.2067298624 21.9466170431 43.2937504741
550 31 2 22.2360351429 21.6396796575 43.4860814754
551 31 2 21.4134702871 21.1151746279 43.8349819526
552 31 2 20.8101793036 20.4301184977 44.3250718413
553 31 2 20.4773199742 19.6561616141 44.9281020397
554 31 2 20.4414009576 18.8730573902 45.6055292388
555 31 2 20.7018655971 18.1613929949 46.3120290415
556 31 2 21.2311426577 17.5952440477 46.9996271609
557 31 2 21.9771593707 17.2354228236 47.6220721478
558 31 2 22.8680877275 17.1239353774 48.139051087
559 32 1 11.5841573446 4.74975486574 14.6108646568
560 32 1 8.78828760013 1.08235304037 17.6524542552
561 32 2 11.4864183131 5.28071986698 14.7369790383
562 32 2 11.0784489998 6.20818163341 14.9533715577
563 32 2 10.4100518903 6.97663875144 15.1435529787
564 32 2 9.54067875963 7.51530194602 15.3093309437
565 32 2 8.54809981022 7.77432704408 15.4547374049
566 32 2 7.52131512547 7.72935813763 15.5856611223
567 32 2 6.55244255016 7.38374755968 15.7093109197
568 32 2 5.72832139507 6.76825032806 15.833558619
569 32 2 5.12259726593 5.93822090774 15.9662215451
570 32 2 4.78900946326 4.96856779927 16.1143499972
571 32 2 4.7564927888 3.94692582924 16.2835846335
572 32 2 5.02654021563 2.96566846998 16.4776423397
573 32 2 5.57306680767 2.1134882445 16.6979774451
574 32 2 6.34478729193 1.46731264005 16.9436491642
575 32 2 7.26989057401 1.0852923733 17.211407347
576 32 2 8.26258512744 1.00150110788 17.4959887213
577 33 1 43.8905838162 51.9968538299 39.342319568
578 33 1 49.0194547417 52.562422528 41.3153391164
579 33 2 43.6721423834 51.4906963637 39.401222436
580 33 2 43.4666339887 50.4752919441 39.414267571
581 33 2 43.5458109656 49.4470134892 39.3151492741
582 33 2 43.909046677 48.4944859398 39.1302138891
583 33 2 44.5298232916 47.6994297438 38.8936297576
584 33 2 45.3581488129 47.1292122565 38.6442728667
585 33 2 46.3251137165 46.8307073855 38.4221834062
586 33 2 47.3491718687 46.82602316 38.2649162125
587 33 2 48.3435732387 47.1104866423 38.2041177458
588 33 2 49.2242709325 47.6530698543 38.2626415994
589 33 2 49.9175818419 48.3992178942 38.4524654563
590 33 2 50.3669026635 49.2758214703 38.7735993551
591 33 2 50.537869138 50.1978806174 39.2140847747
592 33 2 50.4214882613 51.0762522166 39.7510846224
593 33 2 50.0349579719 51.8257751522 40.3529647729