LAMMPS input file for bananas

4320 atoms

2 atom types

0 100.793683992 xlo xhi
0 100.793683992 ylo yhi
0 100.793683992 zlo zhi

Masses

 1 1
 2 1

Atoms

1 1 1 77.9967756944 92.1859204926 58.1384042887
2 1 1 82.158653073 89.6609856375 60.7501990212
3 1 2 77.7869335898 92.6253189245 58.4035021899
4 1 2 77.3847429811 93.2980147428 59.0811252868
5 1 2 77.015152485 93.7311374057 59.94672198
6 1 2 76.7276634632 93.8931946964 60.9288306848
7 1 2 76.5642939472 93.7774012821 61.9453700581
8 1 2 76.5557488076 93.402297179 62.9111204936
9 1 2 76.7186210866 92.8100578799 63.7454916607
10 1 2 77.053879587 92.0626501699 64.379868098
11 1 2 77.5467805682 91.2361840204 64.7638633292
12 1 2 78.1682115989 90.4139753681 64.8699124559
13 1 2 78.8773450773 89.6789520901 64.6957846239
14 1 2 79.6253595579 89.1060953499 64.2647863602
15 1 2 80.3598896956 88.7556052644 63.623637245
16 1 2 81.0297992074 88.6674138242 62.838211547
17 1 2 81.5898418075 88.8575451994 61.9875339598
18 1 2 82.0047852853 89.3166551796 61.1565767121
19 2 1 41.4257290731 94.3584241269 20.037285654
20 2 1 38.7137716901 90.9236913118 23.4086190258
21 2 2 41.323269181 94.896874295 20.1206821465
22 2 2 40.9070402065 95.8345054521 20.2657726878
23 2 2 40.2319923315 96.608686174 20.4014361959
24 2 2 39.3584410698 97.1496682702 20.5344646741
25 2 2 38.3647949883 97.4089589814 20.6718903015
26 2 2 37.3404089759 97.3637409655 20.8203444689
27 2 2 36.3774397839 97.0189520367 20.9854533449
28 2 2 35.5624461845 96.4068350974 21.1713250662
29 2 2 34.9684993703 95.5839992836 21.3801752916
30 2 2 34.6485227102 94.6262601935 21.6121252505
31 2 2 34.6304679258 93.6217294983 21.8651906935
32 2 2 34.9147673666 92.6627837992 22.1354627513
33 2 2 35.4742946028 91.8376447465 22.4174642174
34 2 2 36.2568369264 91.2223378725 22.7046487813
35 2 2 37.1898544005 90.8737630673 22.989997707
36 2 2 38.1870916803 90.8245083057 23.2666595719
37 3 1 95.2430786001 62.0336569757 25.2135365652
38 3 1 93.2251630558 66.8026767483 27.1377138768
39 3 2 95.6218259067 62.0853583947 24.8119658628
40 3 2 96.1680696078 62.3225311565 23.9641351537
41 3 2 96.469453712 62.735792111 23.0631173868
42 3 2 96.5083315417 63.3029068799 22.1969076174
43 3 2 96.2909831648 63.9876177204 21.4503282451
44 3 2 95.8470429829 64.7429483225 20.8972976785
45 3 2 95.226798635 65.5154855734 20.5940928697
46 3 2 94.4966074137 66.2502480204 20.5742198209
47 3 2 93.7328479753 66.8956972831 20.8453596015
48 3 2 93.0149586293 67.4084356394 21.3886682394
49 3 2 92.4181967487 67.7571616112 22.1604942986
50 3 2 92.0067792622 67.9255230113 23.0963575909
51 3 2 91.8280294518 67.9136074008 24.1168263727
52 3 2 91.9080635633 67.7379341086 25.1347573363
53 3 2 92.2494103791 67.4299485388 26.0632384892
54 3 2 92.8307807275 67.0331560055 26.8235109501
55 4 1 29.3516253982 65.4014960069 51.1749099938
56 4 1 33.7766429084 68.4854283212 52.3693021307
57 4 2 29.052501611 65.2423130988 51.6137349587
58 4 2 28.7022371801 64.8753645675 52.5171250267
59 4 2 28.6511965935 64.4610358079 53.4653742284
60 4 2 28.9048363786 64.0527222206 54.383196044
61 4 2 29.4408422609 63.7032709397 55.1980773283
62 4 2 30.2111630512 63.4601639571 55.8468876907
63 4 2 31.1463903824 63.3611902663 56.281633661
64 4 2 32.1620850971 63.4310014963 56.4738331664
65 4 2 33.1664736509 63.6788649821 56.417111596
66 4 2 34.0688130259 64.0978190709 56.1277828298
67 4 2 34.7876617139 64.6653076592 55.6433622717
68 4 2 35.2583028924 65.3452361207 55.0191474213
69 4 2 35.4386431903 66.0912612351 54.3231776541
70 4 2 35.3130493854 66.851015249 53.6300326146
71 4 2 34.8937733316 67.5708790563 53.0140344809
72 4 2 34.2198352347 68.2008694369 52.5424736968
73 5 1 70.6348756188 64.1555652827 19.3894962019
74 5 1 74.5838961495 60.2974013974 19.5839167324
75 5 2 70.1730571146 64.0038960954 19.1228471537
76 5 2 69.4606689909 63.6564774056 18.4555740264
77 5 2 68.9991688933 63.2385472056 17.6274423829
78 5 2 68.8288867516 62.7698266158 16.7192821481
79 5 2 68.9636087574 62.274666165 15.8192176391
80 5 2 69.3893207892 61.7798263047 15.0146352693
81 5 2 70.0654857627 61.3120382652 14.3842185103
82 5 2 70.9287384771 60.8955675759 13.9907761039
83 5 2 71.8986611842 60.5500023267 13.8755172128
84 5 2 72.885113451 60.2884677663 14.0542953159
85 5 2 73.7964482194 60.1164299705 14.516163206
86 5 2 74.5478651905 60.0311976245 15.2243707985
87 5 2 75.069140145 60.0221673285 16.1197148032
88 5 2 75.3110256935 60.0717900696 17.1259349461
89 5 2 75.2497400442 60.1571707674 18.1566648898
90 5 2 74.8891346497 60.2521550993 19.1233042938
91 6 1 53.3705344083 8.45611128284 11.2941339462
92 6 1 56.048858399 11.4766269718 15.0652155728
93 6 2 53.32337884 8.69347519202 10.7953190356
94 6 2 53.1556528452 9.32018109265 9.98750859005
95 6 2 52.9126203677 10.1411874299 9.4041272223
96 6 2 52.6334720136 11.0903537676 9.09654069629
97 6 2 52.3606902542 12.0898582279 9.09097681323
98 6 2 52.1361772629 13.0572907477 9.38613481767
99 6 2 51.9974356441 13.9131645355 9.9533039579
100 6 2 51.9741501704 14.5881610803 10.7389803942
101 6 2 52.0854820957 15.0294483479 11.6697439307
102 6 2 52.3383226578 15.2054962805 12.6589500704
103 6 2 52.7266649601 15.1089506766 13.614627429
104 6 2 53.2321514851 14.7573035068 14.447860681
105 6 2 53.825747332 14.1912985679 15.0808949541
106 6 2 54.470386671 13.4712177943 15.4542229777
107 6 2 55.1243511946 12.6713867209 15.5320090118
108 6 2 55.7450726293 11.8733999093 15.3053551786
109 7 1 71.6408046916 67.2527141953 51.6254164691
110 7 1 73.0669181898 69.8881378476 56.2664005808
111 7 2 71.1531651715 67.4055676867 51.4104162443
112 7 2 70.1642005052 67.6545376369 51.2276243849
113 7 2 69.1540215515 67.8519755344 51.3459745826
114 7 2 68.2147756926 67.9988222874 51.7579251364
115 7 2 67.4321449486 68.1006300516 52.4291734577
116 7 2 66.8775362905 68.1670561661 53.3017826594
117 7 2 66.6015730858 68.2109829131 54.2994623484
118 7 2 66.6294809135 68.2473433316 55.3345222907
119 7 2 66.9587883201 68.2917601115 56.3158651425
120 7 2 67.5595520862 68.3591216268 57.157289729
121 7 2 68.3770864708 68.4622249002 57.7853480514
122 7 2 69.3369476702 68.6106091887 58.1460398754
123 7 2 70.3517191722 68.8096865058 58.2097347087
124 7 2 71.328979537 69.0602483309 57.9738725407
125 7 2 72.179726365 69.3583934681 57.463197181
126 7 2 72.8264886271 69.6958836298 56.7275009269
127 8 1 39.22863375 54.6133321955 27.0004004909
128 8 1 36.8312874138 57.8611758991 30.7716380706
129 8 2 39.6714245604 54.3329231018 27.1812004536
130 8 2 40.5681392163 54.0203340189 27.5954961236
131 8 2 41.4780842312 54.0028456865 28.0906165527
132 8 2 42.3129660004 54.2774015662 28.6392890521
133 8 2 42.9913327333 54.8143260705 29.2093598052
134 8 2 43.4459985668 55.5600294129 29.7667246016
135 8 2 43.6301673766 56.4418921737 30.278437345
136 8 2 43.5216981194 57.3748843663 30.7157130016
137 8 2 43.1251229293 58.269315693 31.0565512794
138 8 2 42.4712340264 59.039010576 31.2877418952
139 8 2 41.6142770877 59.6091628309 31.4060686577
140 8 2 40.6270068992 59.9231540505 31.4186026138
141 8 2 39.5940559511 59.9477142214 31.342057542
142 8 2 38.6042204129 59.6759541966 31.2012665362
143 8 2 37.7423665995 59.1279936229 31.0269185354
144 8 2 37.081695634 58.3491270892 30.8527611091
145 9 1 94.8242687003 65.9639489963 0.0609449998466
146 9 1 97.8908473592 67.9418417117 4.20847761538
147 9 2 94.7023363835 66.3318631997 -0.335480575864
148 9 2 94.4066323782 67.1524850539 -0.894577101403
149 9 2 94.0605505137 68.0881182122 -1.17434119379
150 9 2 93.7119840605 69.0635056872 -1.150451605
151 9 2 93.4090527525 69.9997669919 -0.826264308442
152 9 2 93.1957168021 70.8215878848 -0.232506610976
153 9 2 93.1077700445 71.4640850626 0.575523559004
154 9 2 93.1695774247 71.8787200988 1.52299790993
155 9 2 93.3918541989 72.0377235924 2.52237818584
156 9 2 93.7706892663 71.9366262742 3.48139504445
157 9 2 94.2879016566 71.5946663688 4.31145816107
158 9 2 94.9126976762 71.0530360819 4.93573099994
159 9 2 95.6044776712 70.3711270406 5.29613425908
160 9 2 96.3165365773 69.6211169058 5.35863964344
161 9 2 97.0003209618 68.8813905709 5.11637145306
162 9 2 97.6098545391 68.2293955885 4.59023328471
163 10 1 65.7520801155 41.3085240086 75.7548863338
164 10 1 65.9859083589 46.457029259 73.7658641869
165 10 2 65.5528326065 41.2661434263 76.2705275893
166 10 2 65.3387549991 41.354728278 77.2803659493
167 10 2 65.3351697909 41.6647491158 78.2689630551
168 10 2 65.5284735572 42.1811802213 79.1461076146
169 10 2 65.8871169694 42.870182132 79.8317469375
170 10 2 66.3644804323 43.6821860176 80.2632835238
171 10 2 66.903123335 44.5564117466 80.4012806589
172 10 2 67.4400196098 45.4264078328 80.2330569646
173 10 2 67.9123023894 46.2261083105 79.7738422727
174 10 2 68.2629941538 46.895854471 79.0653894669
175 10 2 68.446200079 47.3878325942 78.1721688187
176 10 2 68.4312912278 47.6704320416 77.1754916946
177 10 2 68.2056962951 47.7311264811 76.1660992424
178 10 2 67.7760474493 47.5776156292 75.235891578
179 10 2 67.1675758274 47.2371234421 74.4695513357
180 10 2 66.4218117844 46.753916725 73.9368250721
181 11 1 42.8610722249 33.7066035649 48.9627636715
182 11 1 38.1394001997 35.8041538299 50.9182910261
183 11 2 43.0592158061 33.9589651316 48.5106195032
184 11 2 43.2107813682 34.3990770351 47.5849957114
185 11 2 43.0633738663 34.7785874389 46.63226653
186 11 2 42.6263615372 35.0813122699 45.7429814733
187 11 2 41.9355093242 35.2980662552 45.001907293
188 11 2 41.0497189969 35.4275001343 44.4803017157
189 11 2 40.0456604136 35.4762236414 44.2294184913
190 11 2 39.0107832676 35.4582030449 44.275835751
191 11 2 38.0353462821 35.3934881603 44.6190334814
192 11 2 37.2041903683 35.3063848624 45.2314409223
193 11 2 36.5890056036 35.2232396702 46.0609495681
194 11 2 36.2417968721 35.1700383317 47.0356627185
195 11 2 36.1901437591 35.1700372929 48.0704486708
196 11 2 36.4346867448 35.2416439347 49.0747002469
197 11 2 36.9490688271 35.396738789 49.9605933956
198 11 2 37.682337891 35.6395926606 50.6510921198
199 12 1 47.528784509 32.9544954352 49.2115279821
200 12 1 46.6604298631 29.3955567356 53.3464894816
201 12 2 47.4549696883 33.4879880284 49.3431281846
202 12 2 47.1122044639 34.4076331604 49.6751143943
203 12 2 46.5376313628 35.1538336529 50.1069715324
204 12 2 45.7908048621 35.6592281719 50.61714461
205 12 2 44.9469798756 35.8784042041 51.1769403498
206 12 2 44.0902524702 35.7920372865 51.7531425014
207 12 2 43.3058947334 35.4086523791 52.3110394137
208 12 2 42.6725824512 34.763846838 52.8175879094
209 12 2 42.2552240198 33.9170458112 53.2444250819
210 12 2 42.0990442193 32.9460857953 53.570453499
211 12 2 42.2254620956 31.9401200472 53.7837641768
212 12 2 42.6301386717 30.9914925023 53.8827220522
213 12 2 43.2833724338 30.1873208725 53.8761150145
214 12 2 44.1328065449 29.6015560987 53.7823529125
215 12 2 45.1082010307 29.2882419208 53.6277895462
216 12 2 46.1278349654 29.2765889353 53.4443205885
217 13 1 85.0112773693 14.4087315365 56.2211636748
218 13 1 82.5807082131 11.0756075389 59.8954811699
219 13 2 84.8734456819 14.9440053956 56.2643598533
220 13 2 84.3961892574 15.8601909067 56.3436089898
221 13 2 83.6717390387 16.5957482219 56.4306568382
222 13 2 82.765094917 17.0858680125 56.536623996
223 13 2 81.7578632707 17.2881119246 56.670906616
224 13 2 80.7408187625 17.1862807208 56.8403199726
225 13 2 79.8056304709 16.7918907981 57.0484772671
226 13 2 79.0365064992 16.1431244986 57.2954602946
227 13 2 78.5025186317 15.3013498912 57.5778119885
228 13 2 78.2513066255 14.3455272365 57.8888515226
229 13 2 78.3047359735 13.3650119694 58.2192832509
230 13 2 78.6569049234 12.4514101908 58.5580439805
231 13 2 79.2746824068 11.6902290157 58.8933113527
232 13 2 80.1007278472 11.1530828285 59.2135814186
233 13 2 81.0587176008 10.8911658234 59.5087171937
234 13 2 82.0603016518 10.9305857902 59.7708726173
235 14 1 60.4732240511 19.4529913279 33.9059373055
236 14 1 55.2950366691 18.851445799 35.7341904269
237 14 2 60.7626217709 19.8564916551 34.152550431
238 14 2 61.1141641791 20.74065215 34.562584778
239 14 2 61.1872311742 21.7211769319 34.8892074618
240 14 2 60.9691957712 22.7072054992 35.1208499418
241 14 2 60.4739641905 23.6073756954 35.2546008689
242 14 2 59.7407083431 24.3381511247 35.2964714478
243 14 2 58.8302954159 24.8314352717 35.2608475308
244 14 2 57.81973999 25.0407783166 35.1691783869
245 14 2 56.7951843677 24.9456109122 35.0480216574
246 14 2 55.8440469317 24.5531190247 34.9266226984
247 14 2 55.0470541933 23.8975889524 34.8342489445
248 14 2 54.4708827865 23.0372822211 34.7975222603
249 14 2 54.1620820714 22.0491252017 34.8379924291
250 14 2 54.1428312838 21.0216974772 34.9701729469
251 14 2 54.4089179578 20.0471580504 35.200218157
252 14 2 54.9301218803 19.212845297 35.5253622971
253 15 1 60.0922552663 34.6365421822 61.1748080153
254 15 1 54.9184578587 32.9765212144 60.1777414013
255 15 2 60.1561621127 35.1850484326 61.2241881357
256 15 2 60.1567070754 36.2151976714 61.113543389
257 15 2 59.9897000845 37.1734817089 60.7568216773
258 15 2 59.6543779226 37.9775090786 60.1959749534
259 15 2 59.1653188502 38.5589483969 59.4915606193
260 15 2 58.5511138364 38.8697565861 58.7172218809
261 15 2 57.8517605683 38.8865578728 57.9529753668
262 15 2 57.1150177688 38.6127744266 57.2779178262
263 15 2 56.3920521165 38.0783144393 56.7630166718
264 15 2 55.7327745402 37.3368460722 56.4646414898
265 15 2 55.1812909706 36.4609057476 56.4194261026
266 15 2 54.7718822026 35.535286647 56.6409294941
267 15 2 54.5258792931 34.6493100396 57.1183999443
268 15 2 54.4497192913 33.8886838874 57.81775502
269 15 2 54.5343585197 33.3276907933 58.6846880973
270 15 2 54.7560968805 33.0224173408 59.6496182656
271 16 1 60.8224334628 25.5636723229 28.1955268123
272 16 1 63.2035796781 21.0013149059 30.2037669776
273 16 2 60.4171093935 25.7735090083 28.5102688533
274 16 2 59.5790200036 25.9446855197 29.0948668242
275 16 2 58.7095599102 25.8134290242 29.6428274886
276 16 2 57.8949021742 25.3888417191 30.1218978431
277 16 2 57.2162247677 24.7067621211 30.5061040524
278 16 2 56.7423114195 23.8264984814 30.778118894
279 16 2 56.5232821617 22.8254229964 30.930841089
280 16 2 56.5860250227 21.7919195398 30.9680425644
281 16 2 56.9317452555 20.817327708 30.9040246519
282 16 2 57.535855482 19.9876174602 30.76231456
283 16 2 58.3502167667 19.3755531866 30.5735209315
284 16 2 59.3075263521 19.0340614285 30.3725439479
285 16 2 60.3274521253 18.9914067657 30.1953942709
286 16 2 61.3239546752 19.2486155751 30.075910767
287 16 2 62.2131295546 19.7793824802 30.0426761848
288 16 2 62.9208549471 20.5324680146 30.1164119147
289 17 1 81.8907912199 85.5365009184 54.24069805
290 17 1 79.0219574192 82.2413232769 57.6214654179
291 17 2 81.8491670896 86.0781200709 54.3515931061
292 17 2 81.5404835715 87.0452961555 54.5583173623
293 17 2 80.9573321571 87.876610535 54.7639890464
294 17 2 80.1527673428 88.496340653 54.9690745204
295 17 2 79.2000248646 88.8480492932 55.1740935778
296 17 2 78.1858464568 88.8997286809 55.3795720658
297 17 2 77.202573574 88.6467179055 55.5859939559
298 17 2 76.3397307152 88.1121277505 55.7937572307
299 17 2 75.6758655044 87.3447342074 56.0031376094
300 17 2 75.2713892848 86.414532674 56.2142634164
301 17 2 75.1630707865 85.4063580617 56.427103885
302 17 2 75.3606847547 84.4121523192 56.6414719618
303 17 2 75.846121008 83.5225841703 56.8570413558
304 17 2 76.5750351331 82.8187849018 57.0733762792
305 17 2 77.4808903593 82.3649534634 57.2899711683
306 17 2 78.4810222074 82.2025049055 57.5062967643
307 18 1 88.8705814683 66.7808535334 72.8778400353
308 18 1 92.180688287 64.5859318488 69.0381131298
309 18 2 89.1089660332 66.8650993245 73.3712536893
310 18 2 89.6219846196 66.7985223733 74.2689337273
311 18 2 90.1961602564 66.4519508323 75.0586555241
312 18 2 90.79674489 65.8627845783 75.6633300103
313 18 2 91.3865833572 65.0905353479 76.0227346847
314 18 2 91.9294999793 64.2114024016 76.0990027336
315 18 2 92.3935958782 63.3113271647 75.8800744901
316 18 2 92.7541564742 62.4781598967 75.3807966403
317 18 2 92.9959041536 61.7936523742 74.6415689877
318 18 2 93.1143907826 61.3260064356 73.7246621189
319 18 2 93.1164031427 61.1236575654 72.7085416062
320 18 2 93.0193443335 61.2108601295 71.6807160804
321 18 2 92.8496475273 61.5854766543 70.7297610528
322 18 2 92.6403666552 62.2191726521 69.9372454945
323 18 2 92.4281636304 63.0599992335 69.3702970422
324 18 2 92.2499667125 64.03712811 69.075483494
325 19 1 89.7643758501 96.1085286507 67.464481241
326 19 1 93.74859166 93.8272908263 64.3920279166
327 19 2 89.5390792735 95.7714244535 67.8426132296
328 19 2 89.0962631956 94.9949524401 68.3664978971
329 19 2 88.6736819831 94.082646962 68.6166455428
330 19 2 88.3251821027 93.1077779549 68.5762937943
331 19 2 88.097857706 92.149317853 68.2551585224
332 19 2 88.0277581229 91.2847434625 67.6885482658
333 19 2 88.1366020619 90.582974158 66.9341459518
334 19 2 88.4297980077 90.0980900657 66.0667512518
335 19 2 88.8959512522 89.8644028044 65.1714627912
336 19 2 89.5079024921 89.8933280731 64.3359216371
337 19 2 90.2252033261 90.1723451406 63.6423230495
338 19 2 90.9978030192 90.6661380767 63.1599246026
339 19 2 91.7706104933 91.3198147047 62.9387335423
340 19 2 92.4885157314 92.0639098769 63.0049487595
341 19 2 93.1014129087 92.8207170369 63.3585728309
342 19 2 93.5687674043 93.5113709645 63.9734117845
343 20 1 62.6937431958 72.988612315 73.8003121238
344 20 1 60.0954431968 68.4380492114 72.0512542011
345 20 2 62.6155996989 73.1111573006 74.3353428784
346 20 2 62.2423713777 73.3131469393 75.2805152528
347 20 2 61.6048103858 73.4492078355 76.0857813115
348 20 2 60.7611196894 73.4894928385 76.6857922602
349 20 2 59.7882904263 73.4128845142 77.0339077593
350 20 2 58.7750843694 73.2089199428 77.1064470659
351 20 2 57.8139435284 72.878744386 76.9048474708
352 20 2 56.992564308 72.4350068996 76.4555332929
353 20 2 56.3859042143 71.9007074056 75.8075073731
354 20 2 56.0493496793 71.3071003112 75.0278845967
355 20 2 56.013667735 70.6908457525 74.1957745505
356 20 2 56.2822016811 70.0906681218 73.3950708958
357 20 2 56.8305663518 69.5438264422 72.7068046853
358 20 2 57.6088707588 69.0827183074 72.201758599
359 20 2 58.5462655213 68.7319269276 71.9340152926
360 20 2 59.5574005981 68.5059804358 71.9360279072
361 21 1 93.6916703901 69.255376087 61.3059973645
362 21 1 96.5708780729 64.5450401773 61.1037851049
363 21 2 93.5945070085 69.4480123212 61.8167146509
364 21 2 93.3377431195 69.5886227006 62.8105712993
365 21 2 93.018095899 69.4302493533 63.7832961055
366 21 2 92.6812140063 68.9832237805 64.6551497278
367 21 2 92.3743169952 68.284187362 65.3555869637
368 21 2 92.1418913778 67.3927515929 65.829686756
369 21 2 92.0216357976 66.3860646547 66.0431581007
370 21 2 92.0410248989 65.3517795649 65.9854655798
371 21 2 92.2148050867 64.3800648388 65.6707896375
372 21 2 92.5436504311 63.5553858705 65.1367340694
373 21 2 93.0141012274 62.9488061373 64.440898538
374 21 2 93.5997908129 62.6115099546 63.6556285171
375 21 2 94.2638488167 62.5701371617 62.8614211948
376 21 2 94.9622617965 62.8243549719 62.1395883708
377 21 2 95.6478849455 63.3468883049 61.5648451024
378 21 2 96.2747392159 64.0860058379 61.1984996271
379 22 1 81.0346416941 24.8778003835 -0.595049749191
380 22 1 83.0694678638 29.3763982954 1.88287082018
381 22 2 80.4812712442 24.8440923831 -0.600197940528
382 22 2 79.4691499167 24.8241531589 -0.379601346974
383 22 2 78.5625467105 24.8770479982 0.119119791107
384 22 2 77.83910083 25.0162794596 0.847604979223
385 22 2 77.3597571791 25.2474807493 1.73655134383
386 22 2 77.1632113958 25.5679022695 2.702030404
387 22 2 77.2623828485 25.9666622369 3.6531379282
388 22 2 77.6432370697 26.4257385279 4.50027961195
389 22 2 78.2660649605 26.9216113476 5.16333735927
390 22 2 79.0691021689 27.4274069954 5.57897183296
391 22 2 79.9741587451 27.9153473319 5.70639566593
392 22 2 80.8937459465 28.3592816812 5.53109112065
393 22 2 81.7390506032 28.7370703957 5.06613334215
394 22 2 82.4280302003 29.0326028258 4.35099859349
395 22 2 82.8928908346 29.2372657619 3.44796609992
396 22 2 83.0862664471 29.3507285064 2.43644146389
397 23 1 59.079166537 8.16899113844 48.9960316077
398 23 1 54.725731679 5.45816550778 51.0495701145
399 23 2 59.4651565016 8.30771351558 49.3690590027
400 23 2 60.002577537 8.65357267698 50.184540506
401 23 2 60.2586467894 9.0709000041 51.0976212534
402 23 2 60.2100850972 9.50623990149 52.0365413496
403 23 2 59.8613795956 9.90449497607 52.9271857117
404 23 2 59.2443747254 10.2139480173 53.6998394612
405 23 2 58.415369698 10.3909758824 54.2955422484
406 23 2 57.4499869724 10.4040256299 54.6714623308
407 23 2 56.4362794703 10.236490485 54.8048005722
408 23 2 55.4667047876 9.88822350341 54.6948685226
409 23 2 54.6296979319 9.37555096473 54.3631511691
410 23 2 54.0016107072 8.7297842756 53.8513486363
411 23 2 53.639752452 7.99436601875 53.2175753315
412 23 2 53.5771664456 7.2209102777 52.5310629721
413 23 2 53.8196181016 6.46449815099 51.8658502992
414 23 2 54.3450694663 5.77865725728 51.2940346444
415 24 1 71.5097552819 30.9363119626 88.1525048539
416 24 1 69.3444934717 26.0625547464 86.7116290951
417 24 2 72.0249935465 30.9120756018 88.3557872132
418 24 2 72.8964864079 30.7003452962 88.8745554479
419 24 2 73.5863257908 30.2784922515 89.5223298266
420 24 2 74.0395402098 29.6713632328 90.2290412644
421 24 2 74.2227259128 28.920692415 90.9192487207
422 24 2 74.1270915432 28.0812974245 91.519015449
423 24 2 73.769259449 27.2160828586 91.9626481332
424 24 2 73.1897506 26.3903067001 92.1986846582
425 24 2 72.4492912094 25.6656322264 92.1945847438
426 24 2 71.6232777026 25.0945075664 91.9396959045
427 24 2 70.7949045335 24.715385194 91.4462243949
428 24 2 70.0475812333 24.5492170877 90.7481226426
429 24 2 69.4573298541 24.5975450139 89.8979945746
430 24 2 69.0858557622 24.8423599988 88.9623009103
431 24 2 68.974923359 25.2477437986 88.0153014446
432 24 2 69.1425493673 25.7631427509 87.132286466
433 25 1 28.7684806948 52.6622536284 35.9735681605
434 25 1 26.5329183778 47.7355762507 37.0907531072
435 25 2 28.561432475 53.0846604933 36.2669707222
436 25 2 27.9678488687 53.7873969245 36.7436991793
437 25 2 27.1519492051 54.3146290415 37.1039547065
438 25 2 26.1854912309 54.6101808719 37.3321171725
439 25 2 25.1539556804 54.638993482 37.4246063751
440 25 2 24.1487549348 54.3903205052 37.3902083676
441 25 2 23.2589010286 53.8787076444 37.2492746336
442 25 2 22.5628924398 53.1426668702 37.031867103
443 25 2 22.1215591642 52.2411661578 36.7750180881
444 25 2 21.9725182232 51.2482547132 36.5193548872
445 25 2 22.1267449733 50.2463135866 36.3053967145
446 25 2 22.5675727313 49.3185468596 36.1698614826
447 25 2 23.2522118985 48.5413978153 36.1423190626
448 25 2 24.1156501175 47.9775813377 36.2424960694
449 25 2 25.0765779756 47.6703676176 36.4784778335
450 25 2 26.0448001398 47.6396381903 36.8459714447
451 26 1 97.7414747432 25.5398351779 68.0726843
452 26 1 94.3509011415 21.7372043862 70.2085683735
453 26 2 97.6699817884 26.0533063396 68.2691981967
454 26 2 97.310515379 26.9724129527 68.5845978565
455 26 2 96.6841477688 27.7624772785 68.8231601947
456 26 2 95.8442767194 28.3480848159 68.9816860402
457 26 2 94.8637602605 28.672456754 69.0642713341
458 26 2 93.8282758748 28.7026252083 69.081933796
459 26 2 92.8285112248 28.4324381555 69.051608688
460 26 2 91.9518982142 27.8831201742 68.994605211
461 26 2 91.2746438044 27.1013378809 68.934664228
462 26 2 90.8547839529 26.1549463928 68.8957943475
463 26 2 90.7268937911 25.1268045155 68.9000836038
464 26 2 90.8989361938 24.1072223837 68.9656861908
465 26 2 91.3515359839 23.1857299345 69.1051677564
466 26 2 92.0397459285 22.4429164923 69.3243600771
467 26 2 92.8971435589 21.943085268 69.621829507
468 26 2 93.8418854009 21.7283922923 69.989007651
469 27 1 87.814440659 55.3886547628 52.10366194
470 27 1 91.7060062356 51.5421176403 51.3434905195
471 27 2 87.3190256479 55.2656757299 51.8872786867
472 27 2 86.51886486 54.9909753041 51.2891713378
473 27 2 85.9446929706 54.6642761665 50.4910207718
474 27 2 85.6476227667 54.2965076193 49.5690958286
475 27 2 85.6535099575 53.902342332 48.6109470519
476 27 2 85.9605964952 53.498858966 47.7074266907
477 27 2 86.5396708166 53.1039855011 46.9444077604
478 27 2 87.3367303992 52.7348651473 46.394956946
479 27 2 88.2779039463 52.4062937875 46.11267477
480 27 2 89.2761845587 52.1293713721 46.1268100472
481 27 2 90.2393601806 51.9104901884 46.4395939342
482 27 2 91.0784184825 51.7507522204 47.0260365645
483 27 2 91.7156600968 51.6458687062 47.8362048092
484 27 2 92.0917807076 51.5865510469 48.7997735471
485 27 2 92.1712764804 51.5593574378 49.8324356123
486 27 2 91.945680142 51.547918053 50.8435861667
487 28 1 22.7766730065 53.6746429839 31.309156092
488 28 1 21.6677181096 51.6227820534 36.3169576875
489 28 2 22.3323859091 53.7645333389 30.9899221853
490 28 2 21.4483238523 53.7112276983 30.4522951774
491 28 2 20.5547503445 53.3809461593 30.0449985995
492 28 2 19.7203459062 52.8102629424 29.8179745692
493 28 2 19.0083979551 52.0576642383 29.8047338434
494 28 2 18.4710323277 51.1982173484 30.0193014019
495 28 2 18.1444621482 50.3167285006 30.4549381085
496 28 2 18.0456870991 49.5000129881 31.0847549648
497 28 2 18.1709439456 48.828982188 31.864163971
498 28 2 18.4960495444 48.3712687051 32.7349422024
499 28 2 18.9786050727 48.175061841 33.630538674
500 28 2 19.5618605673 48.2647152679 34.482140284
501 28 2 20.1798875323 48.6385272563 35.2249439452
502 28 2 20.7635881452 49.2688957836 35.8040632122
503 28 2 21.2469933386 50.1048343843 36.179531035
504 28 2 21.5732757048 51.0766194301 36.3299426482
505 29 1 8.40266326815 39.6170883874 1.46846271629
506 29 1 5.47494700897 41.1552148386 5.89346391257
507 29 2 8.54323431246 40.0300621748 1.12630190556
508 29 2 8.57706758132 40.8546400692 0.499902179138
509 29 2 8.31497619554 41.693423168 -0.048915668467
510 29 2 7.78477485403 42.4841153724 -0.457746179189
511 29 2 7.03871576155 43.1688039401 -0.676943366564
512 29 2 6.14872597993 43.6992380769 -0.674145814705
513 29 2 5.19985146862 44.0412268678 -0.437226334868
514 29 2 4.28250537281 44.1777556871 0.0246026737106
515 29 2 3.48422710687 44.1105370368 0.681628909379
516 29 2 2.88170337073 43.8598544559 1.48634836495
517 29 2 2.53377836211 43.4627137303 2.377795191
518 29 2 2.47609028523 42.9694699146 3.28709857008
519 29 2 2.71782302369 42.4392376029 4.14376010766
520 29 2 3.24086905408 41.934502792 4.88207957236
521 29 2 4.0014798983 41.5154274497 5.44714329646
522 29 2 4.93425368042 41.2343659121 5.7998294099
523 30 1 63.8023009537 22.680040745 78.3596049953
524 30 1 66.8046387529 26.7258772558 76.0935145893
525 30 2 64.0788396617 22.35315541 78.7118178696
526 30 2 64.7505031053 21.7284181912 79.1935041132
527 30 2 65.5785239457 21.1465164893 79.4153642228
528 30 2 66.4988117475 20.6731304549 79.3661094219
529 30 2 67.4388661883 20.3640493257 79.0591623334
530 30 2 68.3243852693 20.2600863864 78.5314335435
531 30 2 69.086037744 20.383358947 77.8399573004
532 30 2 69.6657824761 20.7352724089 77.056692995
533 30 2 70.0221587337 21.2963921666 76.2619662548
534 30 2 70.1340652246 22.0282150198 75.5371474774
535 30 2 70.002683422 22.8766786373 74.9572351367
536 30 2 69.6513698772 23.777089194 74.584019872
537 30 2 69.1235273319 24.6600180402 74.4604524367
538 30 2 68.478648674 25.4576299372 74.6067288517
539 30 2 67.7868943209 26.1098660585 75.0184495923
540 30 2 67.1226972837 26.5699181906 75.6670205928
541 31 1 83.881210043 50.4954086435 89.6442016914
542 31 1 84.717445161 48.7289883442 94.8112570632
543 31 2 84.1301687241 50.9744249926 89.5179301566
544 31 2 84.4934297589 51.9440057255 89.4804517068
545 31 2 84.7095074892 52.9307226528 89.7109948283
546 31 2 84.7754325966 53.8429091232 90.1978415545
547 31 2 84.7019217727 54.5956917368 90.9059125301
548 31 2 84.5124009218 55.1187263298 91.7799644009
549 31 2 84.240869952 55.3626096559 92.7496250976
550 31 2 83.9288037745 55.303382361 93.7358080622
551 31 2 83.6213719765 54.9447128138 94.6579207758
552 31 2 83.3633217336 54.317562744 95.4412105519
553 31 2 83.1948992249 53.4773651634 96.0235780436
554 31 2 83.1481813011 52.498971795 96.3612374332
555 31 2 83.244151765 51.4698305384 96.4327073925
556 31 2 83.4907887545 50.4820148275 96.2407690484
557 31 2 83.8823375563 49.6238313834 95.8122124905
558 31 2 84.3998351327 48.9717712924 95.1953949265
559 32 1 17.0887613971 79.1707303428 1.54925020278
560 32 1 15.2195633771 76.8514691622 6.20168154559
561 32 2 16.9120217391 79.6884074168 1.45894445321
562 32 2 16.3700502941 80.5623061605 1.3323824137
563 32 2 15.5975093331 81.251104862 1.28561893057
564 32 2 14.6650533784 81.6993746823 1.34066502006
565 32 2 13.6579127769 81.8736103469 1.51025202794
566 32 2 12.6681251814 81.7652840621 1.79667120143
567 32 2 11.7861465645 81.3916228007 2.19156484811
568 32 2 11.0926063985 80.7940381095 2.67668811726
569 32 2 10.6509584947 80.0343515575 3.22557196925
570 32 2 10.5016973579 79.1891598649 3.80593575771
571 32 2 10.6586672205 78.342853317 4.38262952421
572 32 2 11.1078001779 77.5799238151 4.92083782304
573 32 2 11.8083984402 76.9772636658 5.38925305597
574 32 2 12.6968438271 76.5971570523 5.76292907619
575 32 2 13.692396395 76.4816029981 6.02555496294
576 32 2 14.7045536669 76.6484872679 6.17094171829
577 33 1 68.5266412949 23.7770334567 34.8468722335
578 33 1 67.8362275333 20.5481254903 39.2758081377
579 33 2 68.4247697126 24.3153139103 34.9320656723
580 33 2 68.0337019067 25.2410376525 35.1841599712
581 33 2 67.419982122 25.9907229346 35.5512703291
582 33 2 66.6466496394 26.498601 36.0176036361
583 33 2 65.7912920108 26.7209431738 36.5583228756
584 33 2 64.9389731606 26.6400466142 37.1418109522
585 33 2 64.174480037 26.2658478798 37.7325525051
586 33 2 63.5745945079 25.6350172381 38.2943710386
587 33 2 63.2010948987 24.8076162694 38.7937263131
588 33 2 63.0951250635 23.8616234137 39.2027714478
589 33 2 63.2734442324 22.8858264447 39.5018910899
590 33 2 63.7268994528 21.9717297011 39.6814893016
591 33 2 64.4212598562 21.2052137112 39.7428642037
592 33 2 65.3003367107 20.658707412 39.6980896561
593 33 2 66.2911048733 20.3845864452 39.5689147569