LAMMPS input file for bananas

648 atoms

2 atom types

0 67.4746132241 xlo xhi
0 67.4746132241 ylo yhi
0 67.4746132241 zlo zhi

Masses

 1 1
 2 1

Atoms

1 1 1 16.4264532647 36.3330178499 26.2811911766
2 1 1 13.8766302648 40.9781759211 27.7837037688
3 1 2 16.9431866234 36.3988856035 26.0913785671
4 1 2 17.8088178462 36.6855307197 25.6002416875
5 1 2 18.4813994518 37.1726501695 24.9813338619
6 1 2 18.9062295512 37.8295337697 24.3025691063
7 1 2 19.0511871064 38.6099984991 23.6373169853
8 1 2 18.9096595433 39.4565977636 23.0577154797
9 1 2 18.5011454418 40.3058572598 22.6280961038
10 1 2 17.8694773745 41.0940602222 22.399120529
11 1 2 17.078826868 41.7630547701 22.4031631202
12 1 2 16.2078556081 42.2655540521 22.6513602336
13 1 2 15.3425459668 42.5694461191 23.132595215
14 1 2 14.5683642982 42.6607207078 23.8145116062
15 1 2 13.9624712665 42.5447461802 24.6464622142
16 1 2 13.5866891805 42.2457802347 25.5641252561
17 1 2 13.481867314 41.8047589825 26.495366848
18 1 2 13.6641587745 41.2755659021 27.3668155144
19 2 1 27.2540481831 14.1338543237 56.6801595433
20 2 1 25.4832544782 11.8944787537 61.3903741497
21 2 2 27.3509261936 14.6793605971 56.7006121319
22 2 2 27.3165360145 15.7059764092 56.833184984
23 2 2 27.0123306218 16.6615740174 57.092010333
24 2 2 26.4736623452 17.4609526423 57.4708619834
25 2 2 25.7572531987 18.0331497935 57.9525741652
26 2 2 24.9360250582 18.3279090145 58.5106060763
27 2 2 24.0924533318 18.320260414 59.1114608945
28 2 2 23.3110498928 18.0127965003 59.7177387832
29 2 2 22.670660401 17.4354358917 60.2915456301
30 2 2 22.2372780618 16.6426964401 60.7979468357
31 2 2 22.0580287978 15.7087263022 61.2081513626
32 2 2 22.1568760445 14.7205458434 61.5021358413
33 2 2 22.5324366466 13.7701163281 61.6704695625
34 2 2 23.1581069241 12.9459582812 61.7151740222
35 2 2 23.9844874147 12.325083449 61.6495386761
36 2 2 24.943885296 11.9659757063 61.4969096964
37 3 1 18.6501191279 49.2695255994 16.9146014089
38 3 1 13.5537748011 50.2682421049 15.0798058423
39 3 2 18.9560890893 49.7204016043 17.0169437879
40 3 2 19.4590414634 50.6254523903 16.9920388617
41 3 2 19.8217911116 51.5491305813 16.6955096672
42 3 2 19.9983258409 52.4190557202 16.1618768222
43 3 2 19.9596056715 53.1677465716 15.4472713167
44 3 2 19.6962096319 53.7387715746 14.6243185578
45 3 2 19.2191944155 54.091892192 13.775519062
46 3 2 18.5590866393 54.2067303775 12.9857290988
47 3 2 17.7631005518 54.0846258948 12.3344266231
48 3 2 16.8908347779 53.7485142073 11.888467405
49 3 2 16.0088403129 53.2408360678 11.6959915844
50 3 2 15.1845548558 52.6196693349 11.7820360275
51 3 2 14.4801563249 51.9534355745 12.1462523881
52 3 2 13.9468957674 51.314663903 12.7629388567
53 3 2 13.6204261774 50.7733804557 13.5833827047
54 3 2 13.5175529702 50.3907259847 14.540300115
55 4 1 53.5801458265 25.4454730276 45.0292667504
56 4 1 53.2817875806 24.3465173322 50.4181361739
57 4 2 53.3413539453 25.9205693426 44.8722868775
58 4 2 52.7125383989 26.7257861367 44.7022421943
59 4 2 51.9012812622 27.3694644646 44.7176804424
60 4 2 50.9860375644 27.8044717203 44.9316802841
61 4 2 50.0547399968 28.0026942353 45.3392228538
62 4 2 49.1967844508 27.957599647 45.9176491934
63 4 2 48.4948821955 27.6848322784 46.6287254605
64 4 2 48.0175213123 27.2207872654 47.4221276815
65 4 2 47.8127244762 26.6192933898 48.2400284363
66 4 2 47.903672018 25.9467069551 49.0223674316
67 4 2 48.2865891958 25.2758638639 49.7123255846
68 4 2 48.9310902377 24.679441125 50.261503693
69 4 2 49.7829477956 24.2233328425 50.6343336901
70 4 2 50.7690353967 23.9606444195 50.8113204308
71 4 2 51.8039924203 23.9268523654 50.7908185398
72 4 2 52.7980041326 24.1365708546 50.5891823769
73 5 1 48.6669597151 31.7432900232 51.9293030018
74 5 1 43.4373222658 30.0400426417 51.6352359447
75 5 2 49.0342476218 31.422482366 51.6655554098
76 5 2 49.6152489236 30.6503093501 51.2928831786
77 5 2 50.0051968318 29.7119743997 51.0924675583
78 5 2 50.1587998459 28.688033847 51.0669699176
79 5 2 50.052307682 27.6668463879 51.2031090506
80 5 2 49.6856759486 26.7365197928 51.4728716676
81 5 2 49.0825701922 25.9768804871 51.8360656144
82 5 2 48.2882089453 25.4521979203 52.2439831118
83 5 2 47.3652423673 25.2053268457 52.6438401355
84 5 2 46.3880421114 25.2538014042 52.9835873182
85 5 2 45.435922859 25.5882370067 53.2166538924
86 5 2 44.5859133298 26.173185676 53.3061922967
87 5 2 43.9057356426 26.9503668859 53.2284365783
88 5 2 43.4476329078 27.8439794326 52.9748684968
89 5 2 43.2436076268 28.7676101938 52.5529939032
90 5 2 43.3025048828 29.632110093 51.9856586332
91 6 1 47.5393992408 52.8542923471 13.138506861
92 6 1 52.8825216779 52.4115228024 11.8769076064
93 6 2 47.2770364307 52.3734246464 13.2240215493
94 6 2 46.8848780637 51.4159207082 13.1782362382
95 6 2 46.6623425284 50.4501041137 12.8776126992
96 6 2 46.6430355858 49.5539435538 12.3587468552
97 6 2 46.8420401039 48.7990590499 11.6781259191
98 6 2 47.2545413582 48.2441942793 10.9069799714
99 6 2 47.85626586 47.9298624918 10.1247898268
100 6 2 48.6056937193 47.8746540051 9.41204290277
101 6 2 49.4478428976 48.0735418246 8.84289734329
102 6 2 50.3192804438 48.4983398194 8.47842301259
103 6 2 51.153903973 49.1002716952 8.36103539563
104 6 2 51.8889664454 49.8144166186 8.51062971744
105 6 2 52.470795129 50.5656263064 8.92276762981
106 6 2 52.8596835013 51.2753742764 9.56908173626
107 6 2 53.0335102258 51.8689129974 10.3998610858
108 6 2 52.9897553613 52.2820866147 11.3485819851
109 7 1 29.5123315694 40.9369435199 17.30080067
110 7 1 28.4902474709 43.5423074548 22.0446448696
111 7 2 29.8144483761 40.4743325724 17.346596936
112 7 2 30.5220960316 39.7481427684 17.557740099
113 7 2 31.352752855 39.2527279116 17.9282419647
114 7 2 32.2238504732 39.0257589787 18.4404648793
115 7 2 33.0491346118 39.0804399413 19.0638542872
116 7 2 33.7465265812 39.4043043136 19.7577235691
117 7 2 34.2456041861 39.960351388 20.4749623484
118 7 2 34.4940202257 40.6904185952 21.166330279
119 7 2 34.4622735825 41.5204826239 21.7849449652
120 7 2 34.1463980466 42.3674061382 22.2905549709
121 7 2 33.5683238088 43.1465151756 22.6532084617
122 7 2 32.7738786737 43.7793165984 22.8559831095
123 7 2 31.82861117 44.2006522047 22.8965284467
124 7 2 30.8118162509 44.3646374518 22.7872800948
125 7 2 29.8093081035 44.2488435183 22.5543263433
126 7 2 28.9055987733 43.8563415364 22.2350303807
127 8 1 28.8422197083 47.3668958911 21.6259770321
128 8 1 26.005569879 42.8964951797 23.144387435
129 8 2 29.3109703068 47.4554945778 21.9084728742
130 8 2 30.0475318665 47.5920067819 22.6236929508
131 8 2 30.5502992356 47.6650196684 23.5262406571
132 8 2 30.7800246869 47.6501241573 24.5360439111
133 8 2 30.7223463922 47.5309234165 25.5632550232
134 8 2 30.3890974042 47.3005273204 26.5164396968
135 8 2 29.8172271547 46.9621804375 27.3109106375
136 8 2 29.0654337678 46.5289663107 27.8764462198
137 8 2 28.2088141279 46.0226149815 28.1636907063
138 8 2 27.3320193135 45.4715224461 28.1486526849
139 8 2 26.5215392323 44.9081625549 27.8348917219
140 8 2 25.8578196583 44.3661272435 27.2531939315
141 8 2 25.4079301518 43.8770648584 26.4587660326
142 8 2 25.2194511283 43.4677956272 25.5262036351
143 8 2 25.3161372302 43.1578671783 24.5426923615
144 8 2 25.6957522536 42.957772909 23.6000614748
145 9 1 19.4248464586 10.6177056306 36.6097362148
146 9 1 17.5403013089 12.6635281752 41.363654033
147 9 2 19.9134822603 10.8201655301 36.4435261248
148 9 2 20.7234937585 11.4061711861 36.1730136205
149 9 2 21.3431913642 12.2155935893 35.9899602902
150 9 2 21.7254523188 13.1761581486 35.9275859271
151 9 2 21.8447945867 14.2018147014 36.0081112638
152 9 2 21.6996993676 15.2005803964 36.2407327051
153 9 2 21.3127495256 16.0829232996 36.6207841385
154 9 2 20.7285713152 16.7699226161 37.1301622188
155 9 2 20.0097670045 17.2004617798 37.7389763632
156 9 2 19.2312091077 17.3367988092 38.4082730739
157 9 2 18.4732162687 17.1680062302 39.0935862813
158 9 2 17.8142327672 16.7109670404 39.7489901224
159 9 2 17.3236788609 16.00883594 40.3312847677
160 9 2 17.0556236045 15.1271060762 40.8039337896
161 9 2 17.0438568262 14.1476397923 41.1403942074
162 9 2 17.2988094166 13.1612074362 41.3265356979
163 10 1 41.8747871713 42.2805630286 28.7532719332
164 10 1 42.6863326404 39.8449890221 33.6262595319
165 10 2 41.6502693258 42.7869027164 28.7776155023
166 10 2 41.0735344833 43.6270860187 28.9624592496
167 10 2 40.3465751423 44.2690326803 29.3259601043
168 10 2 39.5442800931 44.661525514 29.8503362104
169 10 2 38.7484044593 44.7760833388 30.5031430358
170 10 2 38.0401182787 44.6095568443 31.2402304689
171 10 2 37.492608411 44.1844156285 32.0097667985
172 10 2 37.1644080574 43.5467002484 32.756962819
173 10 2 37.0940618603 42.7618259385 33.4290654906
174 10 2 37.2966128238 41.9086204607 33.9801660177
175 10 2 37.7622312466 41.0721394946 34.3753841204
176 10 2 38.4571106324 40.335914395 34.594047133
177 10 2 39.3265489197 39.774338882 34.631574176
178 10 2 40.2999342 39.4458885633 34.4998936714
179 10 2 41.2971805091 39.3877912834 34.2263561491
180 10 2 42.2360271137 39.6126340608 33.8512414338
181 11 1 6.44660206911 40.9438823073 28.9639991762
182 11 1 2.98737703989 41.0775028142 24.6800124017
183 11 2 6.38572867221 41.3569604289 29.3287479208
184 11 2 6.28146046033 42.263911125 29.8178970248
185 11 2 6.18182091945 43.2749953572 30.0190907333
186 11 2 6.07694111515 44.300051388 29.9144072504
187 11 2 5.95742972707 45.247644046 29.5138033891
188 11 2 5.81522900338 46.0333984154 28.854207076
189 11 2 5.64434916967 46.5876900307 27.996151624
190 11 2 5.44141435575 46.8619906694 27.0182585358
191 11 2 5.20597028313 46.8332913672 26.0100716931
192 11 2 4.94052566933 46.5061995267 25.0638960456
193 11 2 4.65032357553 45.9125189846 24.2663846477
194 11 2 4.34286353749 45.1083513101 23.6906408267
195 11 2 4.02721803423 44.1689825314 23.3895553157
196 11 2 3.71320559384 43.1820213303 23.3909856261
197 11 2 3.41049590188 42.2394141115 23.695217026
198 11 2 3.12772847594 41.4290647187 24.2749365405
199 12 1 40.983793183 19.052170494 10.297050258
200 12 1 41.5366488387 24.5169575972 9.88828691854
201 12 2 40.5995648285 18.8807460368 10.6581083956
202 12 2 39.9918046973 18.7083432444 11.4788417086
203 12 2 39.5637426229 18.7521904183 12.4209343564
204 12 2 39.3406253514 19.0212061427 13.3958946091
205 12 2 39.3290203147 19.5037864319 14.31223508
206 12 2 39.516217055 20.1688623547 15.0838111737
207 12 2 39.8713856955 20.9687317539 15.6376725752
208 12 2 40.3483868722 21.8434069712 15.9207121711
209 12 2 40.8899770207 22.7260823107 15.9045063986
210 12 2 41.4330257349 23.5492229204 15.5879058588
211 12 2 41.9142696702 24.2507201306 14.9971400762
212 12 2 42.2760785639 24.7795522335 14.1834268574
213 12 2 42.4717078386 25.100434762 13.2183041393
214 12 2 42.4695590496 25.1970364272 12.1871097968
215 12 2 42.256059867 25.0734676027 11.18120368
216 12 2 41.8369011001 24.7539056934 10.2896407909
217 13 1 26.2040654427 23.2576803279 16.9576193125
218 13 1 26.5261273131 18.7144031793 20.0546410801
219 13 2 26.3337788436 23.7297198772 17.2178765874
220 13 2 26.4242416638 24.5328288212 17.8655885398
221 13 2 26.322968906 25.1648209509 18.6798538821
222 13 2 26.0537184917 25.5625373644 19.5974726155
223 13 2 25.6555583544 25.6841717852 20.5458247884
224 13 2 25.1793056647 25.5130809175 21.4494893067
225 13 2 24.6828951943 25.0593013686 22.2371180498
226 13 2 24.2260989582 24.358634881 22.8479387624
227 13 2 23.8650784056 23.469385249 23.237294029
228 13 2 23.6472656888 22.4670443274 23.3807114909
229 13 2 23.6070405476 21.4374114669 23.2761343345
230 13 2 23.762596832 20.4687734912 22.9441087551
231 13 2 24.1142842574 19.6438579583 22.4259113124
232 13 2 24.6445765301 19.0322931113 21.779786855
233 13 2 25.3196687495 18.6842617406 21.075639902
234 13 2 26.0925584923 18.6259273674 20.3886633249
235 14 1 41.8945101535 8.83225212047 23.1722054516
236 14 1 36.8979006336 7.6696388286 25.1769145494
237 14 2 41.9512507752 9.34237041922 22.9625853792
238 14 2 41.8611292111 10.2398218533 22.4535104355
239 14 2 41.5154731137 11.0020630536 21.8434215192
240 14 2 40.9354729585 11.5699689831 21.2001634478
241 14 2 40.1636780756 11.9021269322 20.5946041802
242 14 2 39.2601185692 11.9786110032 20.0941756874
243 14 2 38.2968339858 11.8027982197 19.7567279914
244 14 2 37.3513074029 11.4010607338 19.6252565318
245 14 2 36.4994033784 10.8203621852 19.7239834264
246 14 2 35.8084534156 10.1239772875 20.0561497916
247 14 2 35.3311191585 9.38572477186 20.6037203362
248 14 2 35.1005926445 8.68323931574 21.329027155
249 14 2 35.127571077 8.0908956744 22.1782028999
250 14 2 35.3992818491 7.6730299318 23.0860904197
251 14 2 35.8806466791 7.47807570768 23.9821813872
252 14 2 36.5174787554 7.53414976516 24.7970426501
253 15 1 32.3173504628 24.9251842528 46.4043283514
254 15 1 27.5873802171 25.175758458 43.5934158715
255 15 2 32.3675032268 24.4886109531 46.7423656362
256 15 2 32.2489576159 23.7409832089 47.4492588144
257 15 2 31.8581166094 23.1297349335 48.1883914984
258 15 2 31.2224675534 22.6967750603 48.8820731954
259 15 2 30.391810369 22.4677627572 49.4567559585
260 15 2 29.4337186316 22.4497687694 49.8497377776
261 15 2 28.4273807021 22.6306309694 50.0148774381
262 15 2 27.4563822513 22.9800628515 49.926799976
263 15 2 26.6010879985 23.4524139393 49.5832094317
264 15 2 25.931317019 23.9908305136 49.0050981115
265 15 2 25.4999792132 24.5324374389 48.2348332824
266 15 2 25.338252933 25.0140688012 47.3322956864
267 15 2 25.4527432878 25.3780250478 46.3694218212
268 15 2 25.8248801348 25.577331906 45.4236474219
269 15 2 26.4126106196 25.5800217661 44.5708497243
270 15 2 27.154232006 25.3720473097 43.8784317756
271 16 1 26.5920345388 12.5044603386 58.3205230379
272 16 1 21.1195856702 13.1130701733 58.1843893655
273 16 2 26.8769980056 12.9636705958 58.4442263682
274 16 2 27.2763654055 13.9172562916 58.5065021395
275 16 2 27.4620125362 14.9250547237 58.3562499043
276 16 2 27.405875083 15.9031938208 58.0204065419
277 16 2 27.1019257381 16.7705047568 57.5428242901
278 16 2 26.5667235487 17.4559199325 56.9802739151
279 16 2 25.837904673 17.9049503002 56.3972704447
280 16 2 24.9707521032 18.0846516667 55.8601930662
281 16 2 24.0331569988 17.986627331 55.4312351184
282 16 2 23.0994308737 17.6277933853 55.1627355955
283 16 2 22.2435326107 17.04883693 55.0924088062
284 16 2 21.5323276166 16.3105077228 55.2399069732
285 16 2 21.0194934987 15.4880812553 55.6050290681
286 16 2 20.7406277193 14.6644979075 56.1677391332
287 16 2 20.7100031302 13.9228035014 56.8899924223
288 16 2 20.9192671013 13.3385802432 57.719202918
289 17 1 15.3158367628 33.6234519808 57.1450144911
290 17 1 14.0292642183 35.6739923663 52.1976262769
291 17 2 15.1547183604 33.9316717268 57.5767808634
292 17 2 14.9589698058 34.6810210125 58.2644264279
293 17 2 14.9009415796 35.6003913496 58.7378070141
294 17 2 14.9689368693 36.612295862 58.9478645524
295 17 2 15.139772683 37.6308138182 58.8695410638
296 17 2 15.3808928197 38.5694217164 58.5040625224
297 17 2 15.6533351447 39.3488793088 57.8788271171
298 17 2 15.9152827204 39.904451807 57.0449080934
299 17 2 16.1258751335 40.1918100138 56.0723987785
300 17 2 16.248932642 40.1910706256 55.044024054
301 17 2 16.25625371 39.9086084596 54.0476005507
302 17 2 16.1301853847 39.3764754327 53.1680327648
303 17 2 15.8652322422 38.6494792487 52.4795745947
304 17 2 15.4685572573 37.8001880525 52.039061608
305 17 2 14.9593289476 36.9123163408 51.8807308684
306 17 2 14.3669742946 36.0730949595 52.0131004627
307 18 1 34.8953409012 11.4916029102 54.7733859991
308 18 1 32.5700149968 15.7578975171 57.3672681654
309 18 2 34.907959991 11.5306730476 54.2204890516
310 18 2 34.7029785194 11.6534411637 53.2127148422
311 18 2 34.2214974996 11.8464744121 52.3162704972
312 18 2 33.5111215594 12.110709877 51.6104065487
313 18 2 32.6403175295 12.4405950487 51.1570034323
314 18 2 31.6921741609 12.824593897 50.9949315095
315 18 2 30.7568291551 13.2462383008 51.1365083012
316 18 2 29.9232537306 13.6856290049 51.5663758296
317 18 2 29.2711435064 14.1212493005 52.2429003928
318 18 2 28.8636547924 14.5319261255 53.1019671914
319 18 2 28.7416483253 14.8987598445 54.0628239527
320 18 2 28.919965092 15.2068468202 55.0354409468
321 18 2 29.3860736759 15.4466377784 55.9287165792
322 18 2 30.1012124094 15.6148081586 56.6587806765
323 18 2 31.0039222338 15.7145611251 57.1566386779
324 18 2 32.015648272 15.7553356201 57.374460016
325 19 1 61.7778923672 9.47600953604 44.6578815198
326 19 1 60.4832114419 14.7383815718 43.6740742288
327 19 2 61.5109438214 9.10519438179 44.3438507142
328 19 2 60.8214589562 8.53200661812 43.8254255226
329 19 2 59.9397134574 8.16718213844 43.4227764874
330 19 2 58.9455660696 8.05286699008 43.1557534748
331 19 2 57.9291201988 8.20837501231 43.0318449687
332 19 2 56.9825116049 8.62842751237 43.0454955471
333 19 2 56.1915108589 9.28363438205 43.1786122205
334 19 2 55.6277059431 10.1231728046 43.4022134839
335 19 2 55.3419774977 11.0794194061 43.6790707825
336 19 2 55.3598613993 12.0741136622 43.9671016386
337 19 2 55.6792213403 13.0254908084 44.2232051818
338 19 2 56.2704435394 13.8557341379 44.407190497
339 19 2 57.0791358343 14.4980674606 44.4854397515
340 19 2 58.0310851543 14.9028412955 44.4339722291
341 19 2 59.0390215332 15.0420580798 44.240630009
342 19 2 60.0105721683 14.9119239555 43.9061860761
343 20 1 43.1711064085 21.89993809 64.1638396536
344 20 1 40.6180924534 17.9793721105 67.0703697277
345 20 2 43.0282728993 22.419747138 64.2933691634
346 20 2 42.5425258515 23.308409311 64.5102276864
347 20 2 41.8106430534 24.0180552774 64.6931168421
348 20 2 40.8975315635 24.4828850572 64.8443086205
349 20 2 39.884616193 24.6594119871 64.9689640104
350 20 2 38.8624181925 24.5304262322 65.0746626101
351 20 2 37.9223048609 24.106563344 65.1707117997
352 20 2 37.1481620421 23.4253349031 65.2672984367
353 20 2 36.6087485058 22.5477095955 65.374560394
354 20 2 36.3514290568 21.5525563354 65.5016625623
355 20 2 36.397857558 20.5294559039 65.6559615329
356 20 2 36.7420033292 19.5705362751 65.8423350954
357 20 2 37.3507008022 18.7620757831 66.0627376598
358 20 2 38.1666723348 18.1766394432 66.3160221262
359 20 2 39.1137486756 17.8664651483 66.5980444348
360 20 2 40.1038112688 17.8587025431 66.9020412682
361 21 1 58.0001135842 10.2084729075 25.4003230294
362 21 1 58.1149521587 15.3637759475 23.4647875491
363 21 2 58.4350351314 10.0644595637 25.712547558
364 21 2 59.3714968133 9.88189924853 26.115548204
365 21 2 60.3960773718 9.83953771321 26.2609388863
366 21 2 61.4185544931 9.957269638 26.1452755755
367 21 2 62.3488975771 10.2403982819 25.7889075239
368 21 2 63.1054734097 10.6791521269 25.2341225708
369 21 2 63.6224864702 11.2495754848 24.5412928956
370 21 2 63.8559757424 11.9157118944 23.7833725074
371 21 2 63.7878214593 12.6328813056 23.039247988
372 21 2 63.4273965959 13.3517523604 22.38654852
373 21 2 62.8107125867 14.0228386075 21.8945705195
374 21 2 61.9971371307 14.6010088532 21.6179617428
375 21 2 61.0639832321 15.0496005605 21.591740518
376 21 2 60.0994626502 15.3437613876 21.8281040645
377 21 2 59.1946460027 15.4727143085 22.3153168001
378 21 2 58.4351623029 15.4407398653 23.0187799589
379 22 1 42.4714010763 62.8818960166 47.0147877228
380 22 1 40.3460807934 58.1172322118 48.7804681724
381 22 2 42.4487500196 63.2991851033 47.3791193016
382 22 2 42.1803021609 64.0161119642 48.0767222649
383 22 2 41.6435517231 64.5867824345 48.7541677999
384 22 2 40.8910995394 64.9501749106 49.3660990792
385 22 2 39.9952061785 65.064159757 49.8731304509
386 22 2 39.041205889 64.9093391335 50.2454371702
387 22 2 38.1197289675 64.4908149758 50.4654737208
388 22 2 37.3184414286 63.8377239886 50.5295729682
389 22 2 36.7140548487 63.0005820349 50.4482803941
390 22 2 36.365334632 62.0466799615 50.2453929478
391 22 2 36.3077439463 61.0539504995 49.9557901176
392 22 2 36.5502114986 60.1038652303 49.6222549045
393 22 2 37.0743177451 59.2740090095 49.291574445
394 22 2 37.8359737056 58.6310086393 49.0102756842
395 22 2 38.7694393724 58.2244602921 48.8203847643
396 22 2 39.7933154608 58.0824091597 48.7555966292
397 23 1 63.2406369159 10.2168226265 50.3738877573
398 23 1 60.4405384119 6.89955054955 53.7638419256
399 23 2 63.2061661038 10.7574394342 50.4918961551
400 23 2 62.9105950676 11.7240674679 50.717653277
401 23 2 62.3396239849 12.5568482195 50.9482319264
402 23 2 61.54572165 13.1796837193 51.1816699138
403 23 2 60.6016755127 13.535611068 51.4157444407
404 23 2 59.5939576008 13.5919942143 51.6481746925
405 23 2 58.6148431878 13.3434985072 51.8768297188
406 23 2 57.7540005346 12.812576913 52.0999226552
407 23 2 57.0903182419 12.0474235811 52.3161735838
408 23 2 56.6847150952 11.1175812781 52.5249261886
409 23 2 56.5745877354 10.107603041 52.7262075745
410 23 2 56.7704022113 9.10934574785 52.9207257968
411 23 2 57.2547400709 8.21359799303 53.1098053267
412 23 2 57.9838859337 7.50180532928 53.2952663351
413 23 2 58.8918118485 7.03864706403 53.4792587961
414 23 2 59.8961952878 6.86614118394 53.664066532
415 24 1 3.96631226227 39.7945452616 41.0856212434
416 24 1 5.0545170932 34.4026601136 40.8027436652
417 24 2 4.35127007313 40.1245167787 40.8613289488
418 24 2 5.21786497755 40.6137431742 40.5743288153
419 24 2 6.21028901784 40.8904655059 40.4684158959
420 24 2 7.24326211195 40.919435292 40.5378825024
421 24 2 8.22780840958 40.6879849967 40.7610363053
422 24 2 9.07936583089 40.2071825892 41.1021774407
423 24 2 9.72549332034 39.5108227741 41.5148523084
424 24 2 10.1124733522 38.652346836 41.946087499
425 24 2 10.2102079149 37.6999718323 42.3412179567
426 24 2 10.0149617381 36.7304730766 42.6488693249
427 24 2 9.54970273719 35.8221865952 42.8256403659
428 24 2 8.86200864535 35.0478693352 42.8400586866
429 24 2 8.01973062918 34.4680678676 42.6754492315
430 24 2 7.10480912016 34.1255999826 42.331454099
431 24 2 6.20580550607 34.0416521416 41.8240651625
432 24 2 5.40983036773 34.2138484763 41.1841665201
433 25 1 63.0014985854 10.0216924246 46.9420476387
434 25 1 59.8572392513 7.39028040749 50.6198104047
435 25 2 62.7253211857 10.3354364243 46.5778066496
436 25 2 62.080650378 10.7268495036 45.8679520009
437 25 2 61.3093452494 10.8408500495 45.1861965131
438 25 2 60.4679572063 10.6744316689 44.60561977
439 25 2 59.6194252323 10.2501462308 44.1900796068
440 25 2 58.8273394315 9.61404841884 43.9883919056
441 25 2 58.150145226 8.83149816226 44.0298813631
442 25 2 57.6358164569 7.9812035265 44.321708745
443 25 2 57.3174828975 7.14804701271 44.8482182317
444 25 2 57.2104107013 6.41534909973 45.5723643387
445 25 2 57.310610997 5.85727415369 46.4390883584
446 25 2 57.5952034468 5.53207085451 47.3803365843
447 25 2 58.0245016323 5.4767632281 48.3212629393
448 25 2 58.5456301993 5.70377616023 49.1870506826
449 25 2 59.0973440841 6.19980295337 49.9097314426
450 25 2 59.6156105807 6.92701814096 50.4343800684
451 26 1 46.7441384303 6.99138724528 44.3999576948
452 26 1 43.0367458366 4.98045720623 40.8576370625
453 26 2 47.0509608982 7.41083418717 44.2068127032
454 26 2 47.658610763 8.04987926447 43.6635988392
455 26 2 48.2513415765 8.45862065119 42.9190862923
456 26 2 48.7623175467 8.6095517538 42.0309299821
457 26 2 49.1321542748 8.49866361863 41.0698769726
458 26 2 49.3143312363 8.14581032045 40.1133183619
459 26 2 49.2794318079 7.59289939971 39.2382356145
460 26 2 49.0178243909 6.90007227753 38.5141842288
461 26 2 48.5405402654 6.14022277753 37.9969542297
462 26 2 47.8782681647 5.39235335352 37.723485291
463 26 2 47.078557208 4.73437455756 37.708499937
464 26 2 46.2014831236 4.23600402724 37.9431616853
465 26 2 45.3141727588 3.95241220104 38.3958804321
466 26 2 44.4846859274 3.9191939111 39.0151916728
467 26 2 43.7758122248 4.1491241583 39.7344471394
468 26 2 43.2393481864 4.63099375857 40.4778893328
469 27 1 51.986370792 16.1860113504 52.9244546756
470 27 1 47.2139800048 15.8949646776 55.6587211101
471 27 2 51.9899110285 15.9357996468 52.4297200783
472 27 2 51.9073113818 15.2873332762 51.6263727464
473 27 2 51.7010799277 14.4598861432 51.0385818819
474 27 2 51.3725986835 13.533037634 50.7133893474
475 27 2 50.9343918966 12.5954268892 50.6739029684
476 27 2 50.4089845453 11.7366739529 50.9171904131
477 27 2 49.8268493416 11.0392115209 51.4145464541
478 27 2 49.2236293521 10.5707717653 52.1141092538
479 27 2 48.6368893774 10.3782130113 52.9455872147
480 27 2 48.1026921774 10.4832489225 53.8266655767
481 27 2 47.6523115985 10.880469449 54.6705088433
482 27 2 47.3093821767 11.5378339165 55.3936752416
483 27 2 47.0877450119 12.399591314 55.923721868
484 27 2 46.990186246 13.3913616162 56.205807362
485 27 2 47.0081831259 14.4269150131 56.2076903201
486 27 2 47.1226807934 15.4160311657 55.9226678792
487 28 1 7.26828933887 31.100221783 49.2940023961
488 28 1 3.5285947019 28.002779394 51.8934580306
489 28 2 7.53523980292 30.8480203375 48.8786559957
490 28 2 8.06871447588 30.2083154799 48.263123105
491 28 2 8.59265604145 29.3928386794 47.8981832542
492 28 2 9.04534919297 28.4655489483 47.8092960429
493 28 2 9.37157242827 27.5005962812 47.9967607653
494 28 2 9.52763111092 26.575563391 48.4356891314
495 28 2 9.48533993683 25.7643945765 49.0782736645
496 28 2 9.23459183141 25.1306562069 49.8581450241
497 28 2 8.78427914018 24.7217430825 50.696421117
498 28 2 8.16148315242 24.5645587244 51.508896659
499 28 2 7.40900582732 24.663063302 52.213717909
500 28 2 6.58146868886 24.9979126916 52.7388430768
501 28 2 5.74033444839 25.5282215602 53.0286084378
502 28 2 4.94830509988 26.1952897833 53.0488017005
503 28 2 4.26360706308 26.9279525591 52.7897802216
504 28 2 3.73468424453 27.6490665917 52.2673498673
505 29 1 45.9510860326 36.0521883447 49.0162276374
506 29 1 47.9583156596 31.972587104 45.9074468688
507 29 2 45.6979955361 36.4585884191 48.7366477173
508 29 2 45.4216888526 37.2147295582 48.0850316758
509 29 2 45.4144701804 37.8979722481 47.306683689
510 29 2 45.6679339757 38.4362655069 46.4589250305
511 29 2 46.1499152748 38.7707694998 45.6054032808
512 29 2 46.8074213106 38.8612183862 44.8102912869
513 29 2 47.5714614393 38.6895902753 44.1324382465
514 29 2 48.3633351653 38.2617497977 43.6200060082
515 29 2 49.1018051513 37.6069135846 43.3060794483
516 29 2 49.7105014445 36.7749873723 43.2056510114
517 29 2 50.1248820749 35.8320174362 43.3142542523
518 29 2 50.2981156126 34.854170926 43.6083709213
519 29 2 50.205349532 33.9207937519 44.0475744915
520 29 2 49.845975349 33.1071787488 44.57821476
521 29 2 49.24368408 32.4777032513 45.1383076955
522 29 2 48.4443069685 32.0799615401 45.6631848582
523 30 1 31.0301044735 49.9620321828 25.3335355764
524 30 1 30.3870956284 45.7460615071 21.8480276058
525 30 2 30.6515603892 50.3645949524 25.2884984321
526 30 2 29.9988361661 51.1054377274 24.9757663704
527 30 2 29.4556382971 51.763880826 24.3891770489
528 30 2 29.0556041958 52.2699000004 23.5788588497
529 30 2 28.8193228798 52.5673633988 22.6153315084
530 30 2 28.7524584233 52.619147598 21.5830787233
531 30 2 28.8452337149 52.4105211499 20.572848046
532 30 2 29.073321575 51.9504872511 19.6733798636
533 30 2 29.4000620109 51.2709631638 18.9633193214
534 30 2 29.7798035241 50.4238711762 18.504048357
535 30 2 30.1620639313 49.4764062415 18.3340911572
536 30 2 30.496131469 48.504911619 18.4656029428
537 30 2 30.7356868238 47.5879207093 18.8832621034
538 30 2 30.8430248195 46.7989992731 19.5456666575
539 30 2 30.7924909857 46.2000404168 20.3891077588
540 30 2 30.5728197868 45.8356234601 21.3333763208
541 31 1 32.1679533514 47.2889239956 50.7697462548
542 31 1 30.2004105613 49.4401510537 55.4428215207
543 31 2 32.6316531839 46.9900840621 50.8250446369
544 31 2 33.5736080404 46.6207169863 51.0463753459
545 31 2 34.5353701189 46.5181320483 51.4167647435
546 31 2 35.4261102566 46.6826923931 51.9189600951
547 31 2 36.1614724536 47.0904127049 52.5236954569
548 31 2 36.6712623438 47.6951453039 53.1923590663
549 31 2 36.9058449306 48.4327861911 53.8805125394
550 31 2 36.8406684762 49.2271176884 54.5419411246
551 31 2 36.478502224 49.996755157 55.1328658607
552 31 2 35.8491840017 50.6625646497 55.6159337291
553 31 2 35.0069007069 51.1548754275 55.9636221249
554 31 2 34.025249544 51.4198299696 56.1607473543
555 31 2 32.9905301427 51.4242927172 56.2058485235
556 31 2 31.9938789388 51.158870153 56.1113206898
557 31 2 31.1229627132 50.638766955 55.9022851366
558 31 2 30.4539883652 49.9024001954 55.614299741
559 32 1 22.2744806762 11.231649575 58.5919143794
560 32 1 17.7331234522 14.0733636418 57.3123165309
561 32 2 22.2500515428 10.9513837737 59.0696539001
562 32 2 22.1310358546 10.6340392811 60.0483397588
563 32 2 21.9113367289 10.6040215724 61.0600361078
564 32 2 21.5929863479 10.8577796501 62.0123796088
565 32 2 21.1870082792 11.3658982996 62.8184165291
566 32 2 20.7124127536 12.0757790842 63.4045279774
567 32 2 20.1944640125 12.9164343316 63.7171397617
568 32 2 19.6623776455 13.804957174 63.7276053088
569 32 2 19.1466577902 14.6540779405 63.4348166038
570 32 2 18.6763168886 15.3801181893 62.8653051776
571 32 2 18.2762314023 15.9106174238 62.07082394
572 32 2 17.9648744936 16.1909373703 61.1236302565
573 32 2 17.752632323 16.1892418819 60.1099001852
574 32 2 17.6408574223 15.8993985852 59.1218741197
575 32 2 17.6217454207 15.3415378038 58.2494497098
576 32 2 17.679046359 14.5602178175 57.5719883068
577 33 1 29.4857955615 47.7861858007 18.6175090459
578 33 1 26.129162116 48.5419600696 22.9184917353
579 33 2 30.0209059241 47.8938562847 18.7146929867
580 33 2 30.9364660037 48.2967507797 18.9832521751
581 33 2 31.6713899776 48.9230197079 19.3579150279
582 33 2 32.1608037812 49.7088741952 19.8222480169
583 33 2 32.3622099188 50.5759802379 20.3516447958
584 33 2 32.2593608187 51.4385983102 20.9155688998
585 33 2 31.8637396882 52.2113979339 21.4803369352
586 33 2 31.2135138978 52.8172349667 22.0121885897
587 33 2 30.3700562874 53.1941827616 22.4803636534
588 33 2 29.4123514521 53.3011763565 22.8599056013
589 33 2 28.4297968385 53.1217552636 23.133936209
590 33 2 27.5140547802 52.6655637306 23.2951938875
591 33 2 26.7506981043 51.9674717327 23.3466955269
592 33 2 26.2114107549 51.0843968144 23.301461528
593 33 2 25.9474542937 50.090116445 23.1813290818
594 33 2 25.9849957593 49.0685437082 23.0149618591