LAMMPS input file for bananas

4320 atoms

2 atom types

0 126.992084157 xlo xhi
0 126.992084157 ylo yhi
0 126.992084157 zlo zhi

Masses

 1 1
 2 1

Atoms

1 1 1 41.2525049533 74.2208138826 26.2494313323
2 1 1 44.1064413416 69.5546337719 27.0238997484
3 1 2 40.7667477253 74.2444419076 26.5156327971
4 1 2 39.8249304498 74.0779730233 26.9140275025
5 1 2 38.9181761191 73.6447416853 27.1661330415
6 1 2 38.1333944618 72.9756613122 27.2656278451
7 1 2 37.5463777233 72.1231423317 27.2201004049
8 1 2 37.2148924053 71.1563151103 27.0503576028
9 1 2 37.1734140034 70.1547289049 26.7885282184
10 1 2 37.429984658 69.2011011612 26.4751344775
11 1 2 37.9654801345 68.3737780391 26.1553985592
12 1 2 38.7353529465 67.73959337 25.8751207149
13 1 2 39.6736927397 67.3477769313 25.6765046981
14 1 2 40.6992338448 67.2254672842 25.5943110052
15 1 2 41.722762426 67.375238166 25.6526885486
16 1 2 42.6552480837 67.7748639012 25.8629735484
17 1 2 43.4159587374 68.379345212 26.2226562661
18 1 2 43.9398191391 69.1250107825 26.7156097604
19 2 1 41.608912697 71.0569663322 111.405565251
20 2 1 40.694295498 67.990746783 115.90887116
21 2 2 41.2641332619 71.4863697775 111.341367039
22 2 2 40.4535937836 72.1261105833 111.256470239
23 2 2 39.4909315501 72.5087723908 111.239110044
24 2 2 38.4617519535 72.6055019005 111.308986873
25 2 2 37.457723266 72.4135077773 111.477849724
26 2 2 36.5682213215 71.9563150738 111.748425284
27 2 2 35.8721831473 71.2816209843 112.114169398
28 2 2 35.4309120652 70.4569473731 112.559863551
29 2 2 35.2824900576 69.563486337 113.063001997
30 2 2 35.4383066962 68.6886997628 113.595843095
31 2 2 35.8820210136 67.9183474099 114.127937888
32 2 2 36.5710509381 67.3286701377 114.62890544
33 2 2 37.4404545365 66.9794407549 115.071201984
34 2 2 38.4088492969 66.9085158875 115.432631455
35 2 2 39.3858299278 67.1283854491 115.698368607
36 2 2 40.2802085585 67.625034218 115.862310293
37 3 1 29.9159203071 101.555949294 102.120494472
38 3 1 26.5224901672 98.2520265864 104.964209944
39 3 2 29.9444760159 102.077405142 102.306639465
40 3 2 29.7631113957 103.039797628 102.644807453
41 3 2 29.2915929608 103.907094125 102.959318445
42 3 2 28.5722018994 104.597635628 103.240528233
43 3 2 27.6698123271 105.045873877 103.481827927
44 3 2 26.6659781849 105.208345909 103.680246337
45 3 2 25.651499815 105.067635583 103.836720783
46 3 2 24.7181477526 104.633961024 103.95601167
47 3 2 23.9502980867 103.944243262 104.046268583
48 3 2 23.4172418053 103.05874098 104.118287474
49 3 2 23.166869107 102.055558098 104.184526645
50 3 2 23.2213043372 101.023524807 104.257971203
51 3 2 23.5748894134 100.054100936 104.350949503
52 3 2 24.1946995442 99.233039634 104.474009452
53 3 2 25.0235442359 98.6325711966 104.634957095
54 3 2 25.9851800534 98.3048194701 104.838145115
55 4 1 32.2094201734 9.9585690835 115.36165243
56 4 1 33.0075710629 6.29261575064 119.416493041
57 4 2 32.5936177848 10.3568567138 115.327877484
58 4 2 33.268163615 11.1253703736 115.494684825
59 4 2 33.8458475571 11.8553760768 115.949462735
60 4 2 34.2900746844 12.4706193717 116.654861884
61 4 2 34.5764143016 12.9053060935 117.550689483
62 4 2 34.6948267384 13.1100993265 118.559395703
63 4 2 34.6505784378 13.056616332 119.593142127
64 4 2 34.4637619346 12.7400155591 120.561807991
65 4 2 34.167464474 12.1794379391 121.38120445
66 4 2 33.8047521979 11.416262241 121.980748168
67 4 2 33.4247447811 10.510333507 122.309894797
68 4 2 33.0781383043 9.53450833703 122.342745961
69 4 2 32.8125844417 8.56801420421 122.080409825
70 4 2 32.6683471385 7.68922808271 121.550900085
71 4 2 32.6746326597 6.96853259584 120.8065826
72 4 2 32.8469275171 6.46190082809 119.919402379
73 5 1 7.81749262173 78.6824562413 116.842039067
74 5 1 7.03966002447 78.6598847156 122.311267353
75 5 2 8.00169010169 78.2043046046 116.630322538
76 5 2 8.50670150433 77.3280202502 116.405513231
77 5 2 9.17134879073 76.5335731953 116.428919914
78 5 2 9.92537735835 75.8804925326 116.708878086
79 5 2 10.6903857398 75.415422186 117.230339264
80 5 2 11.3869716869 75.1678694417 117.956242611
81 5 2 11.9419694736 75.1475154376 118.830892931
82 5 2 12.2951187562 75.3433327541 119.785037141
83 5 2 12.4045571426 75.724590533 120.742176502
84 5 2 12.2506358376 76.243655514 121.625539275
85 5 2 11.8377105779 76.8403336784 122.365078259
86 5 2 11.1937446185 77.4473567734 122.903855408
87 5 2 10.3677599565 77.9965136334 123.203231581
88 5 2 9.42536910742 78.4248674454 123.246388393
89 5 2 8.44279469951 78.6804922714 123.039861174
90 5 2 7.49992198503 78.7272059588 122.612943281
91 6 1 103.883623244 6.42679638281 121.77532334
92 6 1 99.2309602288 3.60068084607 122.715423813
93 6 2 103.956058986 6.87157821899 122.098284281
94 6 2 103.872312124 7.75461641861 122.633709358
95 6 2 103.505687306 8.62866756471 123.052124042
96 6 2 102.882830523 9.40779114372 123.332241675
97 6 2 102.053742627 10.014699036 123.465381004
98 6 2 101.087221881 10.3878001217 123.456257456
99 6 2 100.064593188 10.4868141461 123.322553339
100 6 2 99.0722955397 10.2964431578 123.093306148
101 6 2 98.1940033333 9.82776587587 122.806261871
102 6 2 97.5029996754 9.11722789409 122.504434549
103 6 2 97.0554968219 8.22331976262 122.232185656
104 6 2 96.885512581 7.2212457307 122.031180672
105 6 2 97.0017696813 6.19606908024 121.936591385
106 6 2 97.386900718 5.23495883511 121.973890077
107 6 2 97.9990311459 4.41924453758 122.156527793
108 6 2 98.7755960317 3.81700327788 122.484708314
109 7 1 23.2840590252 64.4415067959 104.227534791
110 7 1 18.7852640542 66.9322641596 106.246188457
111 7 2 23.504514363 64.6840288093 103.780361329
112 7 2 23.6956519715 65.128406054 102.864148859
113 7 2 23.5833797699 65.5413707667 101.920589051
114 7 2 23.1756306902 65.9039043524 101.039816607
115 7 2 22.5072695924 66.2015848789 100.306243326
116 7 2 21.6369154254 66.4259015967 99.7908641989
117 7 2 20.6415982662 66.5750306715 99.5447864005
118 7 2 19.6097382348 66.6540014217 99.594571011
119 7 2 18.6330862363 66.6742379094 99.9398120421
120 7 2 17.798361111 66.6525176678 100.553173443
121 7 2 17.1793454444 66.6094424738 101.382880706
122 7 2 16.8301604809 66.5675605513 102.357439979
123 7 2 16.7803331178 66.5493113605 103.392154535
124 7 2 17.0321046072 66.5749803012 104.396844653
125 7 2 17.560226272 66.6608497532 105.284067261
126 7 2 18.3142608549 66.8177149803 105.977086135
127 8 1 6.73960706564 32.6920238236 8.20698536298
128 8 1 11.1682944068 35.0034000853 5.84854111452
129 8 2 6.50074615883 32.9965029091 8.60399863954
130 8 2 6.27381362968 33.5801772951 9.42939299951
131 8 2 6.35076033687 34.1509823994 10.2906193045
132 8 2 6.72617301918 34.6746322237 11.1019800076
133 8 2 7.3674340395 35.1211388479 11.7823226783
134 8 2 8.21769439523 35.4675457479 12.2624368296
135 8 2 9.20105535299 35.7000202222 12.4913622688
136 8 2 10.2294864153 35.8151142055 12.4410339829
137 8 2 11.2108490649 35.8200785502 12.1088401896
138 8 2 12.057294945 35.7322021312 11.5178603944
139 8 2 12.6932730012 35.5772360107 10.714761755
140 8 2 13.0624157591 35.3870462978 9.76554549479
141 8 2 13.1326770684 35.1967096383 8.74953106792
142 8 2 12.899253024 35.0413160713 7.75212640278
143 8 2 12.3850198293 34.9527706667 6.85704319776
144 8 2 11.6384486909 34.9568854629 6.13866682363
145 9 1 39.0890252995 82.020045471 84.8987699762
146 9 1 36.3836078564 78.5001115538 88.18643978
147 9 2 39.0585193289 82.552281865 85.0510046461
148 9 2 38.7705484278 83.5032119543 85.3446962129
149 9 2 38.2072673352 84.3200664609 85.6428792723
150 9 2 37.4209910696 84.9270335924 85.9375155678
151 9 2 36.4843600635 85.2674322295 86.2208901212
152 9 2 35.4837191823 85.3088782589 86.4863144319
153 9 2 34.5112476203 85.0462362984 86.7287361158
154 9 2 33.6565570136 84.5020877733 86.9451994169
155 9 2 32.9985235792 83.72467268 87.1351146165
156 9 2 32.5980987583 82.7834926389 87.3003117842
157 9 2 32.4927536556 81.7629760078 87.4448739723
158 9 2 32.6930636481 80.7547824627 87.5747650561
159 9 2 33.1817444678 79.8494484631 87.6972861432
160 9 2 33.9152276167 79.128135096 87.8204100964
161 9 2 34.8276315187 78.6552304594 87.9520548289
162 9 2 35.8367664491 78.4724808597 88.0993616079
163 10 1 21.2666947009 81.6436922566 66.9073946667
164 10 1 24.2135725143 81.3643389418 71.5717128313
165 10 2 20.7570471317 81.8541298502 66.965333967
166 10 2 19.7885433643 82.0900870701 67.2477780392
167 10 2 18.8794260839 82.1150403705 67.7440976082
168 10 2 18.1155321122 81.9406340558 68.4219607571
169 10 2 17.5694615543 81.5966835261 69.2324883569
170 10 2 17.2939604934 81.1284576838 70.1147092687
171 10 2 17.317113326 80.5925527937 71.0011176996
172 10 2 17.6397829448 80.0517338851 71.8238261756
173 10 2 18.2355320875 79.5692138869 72.5207533033
174 10 2 19.0530330236 79.202891938 73.0412823231
175 10 2 20.0207459389 79.0000760358 73.3508746914
176 10 2 21.053439599 78.9931710386 73.4342181766
177 10 2 22.0599599483 79.1967250492 73.2966225282
178 10 2 22.9515385583 79.6061033945 72.963535507
179 10 2 23.6498836332 80.1979110632 72.47822339
180 10 2 24.094316097 80.932125099 71.8978273649
181 11 1 45.5428223233 28.132410161 89.0859330998
182 11 1 42.6643522697 25.9298382839 93.2549951451
183 11 2 45.7731074266 28.6246978024 89.1954923868
184 11 2 45.9868312849 29.5995691693 89.4736972421
185 11 2 45.9074279034 30.5654158921 89.8401467233
186 11 2 45.54769841 31.4319304422 90.2796887999
187 11 2 44.9459949087 32.1178591535 90.7705092466
188 11 2 44.1627247876 32.5584082759 91.2861199517
189 11 2 43.2748447466 32.7111497533 91.7977732377
190 11 2 42.3688464006 32.5598884273 92.2770821354
191 11 2 41.5328727993 32.1161381822 92.69860778
192 11 2 40.8486844241 31.4180724858 93.0421780958
193 11 2 40.3842069389 30.5270449793 93.2947264271
194 11 2 40.1873399471 29.5219972574 93.4514825285
195 11 2 40.2815910708 28.4922635524 93.5164073607
196 11 2 40.6639332941 27.5294281584 93.5018320589
197 11 2 41.3050808674 26.7189777668 93.4273339831
198 11 2 42.1521586249 26.1325095837 93.317952294
199 12 1 8.98030229315 10.3886511226 53.9984851281
200 12 1 13.4144742438 7.59693195505 52.2485096246
201 12 2 8.52410334053 10.3188743849 53.6912469297
202 12 2 7.8161694864 10.2401111725 52.9388666895
203 12 2 7.35336950229 10.2188491709 52.0121444479
204 12 2 7.17904333382 10.2383884645 50.9910280911
205 12 2 7.31023730933 10.2783102087 49.9640692767
206 12 2 7.7361504126 10.316337753 49.020352187
207 12 2 8.41911876666 10.3303670981 48.2413737431
208 12 2 9.29804859547 10.3004816165 47.6936153792
209 12 2 10.2939847583 10.2107673998 47.4224834371
210 12 2 11.3173072999 10.0507637688 47.4481704996
211 12 2 12.2759000696 9.81641673653 47.7638148904
212 12 2 13.0835468626 9.51044851849 48.3361260981
213 12 2 13.6677897965 9.14210940973 49.1084191166
214 12 2 13.9765336532 8.72633464529 50.0057811324
215 12 2 13.9827942196 8.28238309347 50.9418996271
216 12 2 13.6871578257 7.83208186141 51.8269295329
217 13 1 58.9506582448 106.208422358 46.2881256794
218 13 1 54.4554463181 103.040582789 46.8133430239
219 13 2 58.8526219581 106.754084559 46.2833052058
220 13 2 58.5105807799 107.716674196 46.1104496732
221 13 2 57.9783515031 108.529305824 45.7501555644
222 13 2 57.2903961763 109.119462326 45.2482763133
223 13 2 56.4953708612 109.434904597 44.6635704613
224 13 2 55.651690763 109.448433 44.062345973
225 13 2 54.82220584 109.16036654 43.5124164426
226 13 2 54.0684721985 108.598513788 43.076920066
227 13 2 53.4451414178 107.815638204 42.8085647629
228 13 2 52.9949792051 106.884648887 42.7448239909
229 13 2 52.7449674154 105.891955109 42.9045211401
230 13 2 52.7038447275 104.929590337 43.2861138312
231 13 2 52.861310137 104.086823632 43.8678344991
232 13 2 53.1889618652 103.442023007 44.609674449
233 13 2 53.6428861053 103.055512401 45.4570305411
234 13 2 54.1676596486 102.964073305 46.3456821214
235 14 1 30.8478128051 22.0722714747 96.8668708017
236 14 1 28.3998933013 21.6850392475 101.804049385
237 14 2 30.7854934912 22.5611713293 96.6129518709
238 14 2 30.4413603757 23.4405674276 96.1867067392
239 14 2 29.830911514 24.2153445809 95.8696538081
240 14 2 29.0110281112 24.8271266666 95.7054469366
241 14 2 28.0576807713 25.2323941271 95.7238084741
242 14 2 27.059004979 25.4064506605 95.9378201475
243 14 2 26.1072677867 25.3456742235 96.3427306965
244 14 2 25.2904579187 25.0678471698 96.9163889388
245 14 2 24.6842658343 24.6105354372 97.6212627908
246 14 2 24.3451847448 24.0276645119 98.4078602166
247 14 2 24.3053614082 23.3846042651 99.2192402953
248 14 2 24.5696660382 22.7522106638 99.9962032331
249 14 2 25.1152483971 22.2003674386 100.682686267
250 14 2 25.8936205343 21.7916163689 101.230873635
251 14 2 26.8350763327 21.5754567663 101.605554855
252 14 2 27.8550450357 21.583833745 101.787334068
253 15 1 44.8947390782 95.2309311656 5.43199696424
254 15 1 42.9218306031 91.3111380176 8.78771520139
255 15 2 44.708480495 95.7427145096 5.53576178011
256 15 2 44.1497578109 96.5945240434 5.72470487096
257 15 2 43.3624756851 97.2425604473 5.90824147456
258 15 2 42.4178278084 97.6278810983 6.08884711134
259 15 2 41.4013513389 97.7154892121 6.26926445154
260 15 2 40.4051304194 97.4975237065 6.45225332812
261 15 2 39.519402953 96.993975718 6.64033918537
262 15 2 38.8243356601 96.250866463 6.83558289143
263 15 2 38.382717096 95.3360525271 7.03939289564
264 15 2 38.2342346416 94.3330409188 7.25239685215
265 15 2 38.3918571048 93.3333776285 7.47438441094
266 15 2 38.8406526487 92.4283034564 7.70432639067
267 15 2 39.539149788 91.7004376575 7.94046858577
268 15 2 40.4231174046 91.2162474171 8.18049165762
269 15 2 41.4114192421 91.0199895447 8.42172253605
270 15 2 42.4134092586 91.129676584 8.66137806255
271 16 1 99.6351844841 87.4394615683 74.1962636627
272 16 1 101.930302837 87.4995724071 79.2208839963
273 16 2 99.1404392573 87.1907994818 74.1684084066
274 16 2 98.3270720794 86.5518498221 74.228634461
275 16 2 97.7162606913 85.7430203744 74.4434701744
276 16 2 97.3556265176 84.843507049 74.8098972221
277 16 2 97.2699879988 83.9407713492 75.3110801344
278 16 2 97.4590984565 83.1225684893 75.9179008048
279 16 2 97.8976685771 82.468948741 76.5916125274
280 16 2 98.5376714659 82.0449610654 77.2873716556
281 16 2 99.3127201693 81.894724074 77.958324981
282 16 2 100.144118669 82.0374047348 78.5598802775
283 16 2 100.948034813 82.465471355 79.0537707641
284 16 2 101.643141394 83.1453800743 79.4115430192
285 16 2 102.158028903 84.020632298 79.6171504344
286 16 2 102.437714319 85.0169243933 79.6684158198
287 16 2 102.448652665 86.0489202666 79.5772298487
288 16 2 102.181794537 87.0280295202 79.3684672551
289 17 1 81.4042828874 122.234023757 119.01480146
290 17 1 84.070564003 117.532701172 117.871778263
291 17 2 81.633586139 122.690787665 118.79993327
292 17 2 82.2583177552 123.4596929 118.496708668
293 17 2 83.0921332672 124.051853178 118.330733044
294 17 2 84.0649573286 124.406983758 118.299981982
295 17 2 85.0940443353 124.486404521 118.39010571
296 17 2 86.0915204661 124.27656556 118.575737038
297 17 2 86.9723931467 123.790282221 118.822803518
298 17 2 87.6622978956 123.065567014 119.09163305
299 17 2 88.1042764477 122.162164877 119.34056989
300 17 2 88.2639683484 121.156107585 119.529771459
301 17 2 88.1327428167 120.132783656 119.62483989
302 17 2 87.7284854179 119.179155414 119.599957298
303 17 2 87.0939678426 118.37583261 119.440239016
304 17 2 86.2929493806 117.789725054 119.143090287
305 17 2 85.4043654329 117.467943967 118.718442773
306 17 2 84.5151327602 117.43350792 118.18784931
307 18 1 115.488873372 118.959948563 68.9111549819
308 18 1 113.340176444 118.611916848 73.9885525929
309 18 2 115.466897815 119.464447177 68.6822886207
310 18 2 115.199367731 120.3964793 68.3173313819
311 18 2 114.662935222 121.249300803 68.0757001376
312 18 2 113.910098936 121.956478097 67.9945347972
313 18 2 113.013082145 122.464852673 68.0963492321
314 18 2 112.05724979 122.739386357 68.386979196
315 18 2 111.133327692 122.76635495 68.8550504121
316 18 2 110.329133139 122.554599148 69.4730153074
317 18 2 109.721570572 122.134718736 70.1996639009
318 18 2 109.369621952 121.556283505 70.9838799828
319 18 2 109.308970713 120.883315089 71.7693002207
320 18 2 109.548749311 120.188451574 72.4994515268
321 18 2 110.070706825 119.546326721 73.1228984283
322 18 2 110.830872479 119.026767307 73.597931274
323 18 2 111.763563464 118.688428594 73.896367957
324 18 2 112.787371746 118.573448064 74.0061226389
325 19 1 113.292783124 27.232656809 46.8454380191
326 19 1 113.009141708 22.0337881258 48.6918678238
327 19 2 113.122433913 27.6181105484 47.2056992428
328 19 2 112.615069532 28.1995756364 47.8970238749
329 19 2 111.909138026 28.5485807708 48.5703040069
330 19 2 111.075643164 28.626336314 49.1807877506
331 19 2 110.197215772 28.4187763036 49.6894469408
332 19 2 109.36058216 27.9378405273 50.0665344483
333 19 2 108.648659241 27.2203862432 50.294295551
334 19 2 108.132996887 26.3248287394 50.3685862296
335 19 2 107.867256341 25.3258169362 50.2992508837
336 19 2 107.882319141 24.3074293369 50.1092250411
337 19 2 108.183472352 23.3555104969 49.8324448459
338 19 2 108.749926663 22.5498465216 49.5107538695
339 19 2 109.536711274 21.9568927767 49.190089181
340 19 2 110.478772871 21.6237166588 48.9162943061
341 19 2 111.496905055 21.5737075279 48.7309407122
342 19 2 112.504967796 21.8044448304 48.6675386804
343 20 1 10.2390761907 124.467218534 7.52290851734
344 20 1 6.83650061291 120.138019254 7.07737053677
345 20 2 10.5036187772 124.507396705 8.00848500202
346 20 2 10.7819716611 124.556215206 9.00527306236
347 20 2 10.7613177727 124.551548826 10.0411309932
348 20 2 10.4473451335 124.475399244 11.0255457606
349 20 2 9.87247698531 124.316283637 11.8726932371
350 20 2 9.09291649809 124.070281316 12.5092608423
351 20 2 8.18352400154 123.741391083 12.8811297881
352 20 2 7.23099366593 123.341166751 12.9583078616
353 20 2 6.32595156032 122.887664046 12.7376631354
354 20 2 5.55469532848 122.403794877 12.2432094343
355 20 2 4.9913283894 121.915238971 11.5239175394
356 20 2 4.69100560865 121.448103242 10.6492516319
357 20 2 4.68490607983 121.026542212 9.70283781934
358 20 2 4.97739123352 120.670556389 8.77484183887
359 20 2 5.54560730455 120.394169277 7.95375069149
360 20 2 6.34156839156 120.204149171 7.31830728841
361 21 1 23.3696371552 55.2935261234 26.2100284182
362 21 1 23.2520125905 51.6247496369 30.3384947939
363 21 2 23.6033956732 55.780086776 26.3365087514
364 21 2 23.8944031968 56.6810464297 26.7572656108
365 21 2 23.9853684052 57.4943129259 27.3926969196
366 21 2 23.882535595 58.1402792809 28.1961910966
367 21 2 23.6098132346 58.5545874714 29.1058180798
368 21 2 23.2065947704 58.6939944969 30.0499740853
369 21 2 22.7241680204 58.5403138633 30.953908101
370 21 2 22.2210404256 58.102073233 31.746535242
371 21 2 21.7576062542 57.413737152 32.3669159473
372 21 2 21.3906418244 56.5325656979 32.7698104582
373 21 2 21.1681304958 55.5333953771 32.9298023012
374 21 2 21.1248891136 54.5018179775 32.843614932
375 21 2 21.2793945466 53.5263791054 32.5304103835
376 21 2 21.63209957 52.6905074907 32.0300426974
377 21 2 22.165391596 52.0649106804 31.3994253354
378 21 2 22.8451980143 51.7011302355 30.7073436692
379 22 1 74.8306205588 68.9801220635 88.7189524812
380 22 1 79.5603826182 70.0707936014 91.3567124246
381 22 2 74.3708364626 69.0958763895 89.0063217714
382 22 2 73.6175695655 69.1868256237 89.7118479791
383 22 2 73.0662634637 69.1217281481 90.5866473343
384 22 2 72.7721709567 68.9227439139 91.5599740436
385 22 2 72.7671005125 68.6242362928 92.5521018085
386 22 2 73.0565170103 68.2696399469 93.4815906646
387 22 2 73.6190436318 67.9075018759 94.2727100164
388 22 2 74.4084103008 67.5870564875 94.8623412792
389 22 2 75.3576710771 67.3537380128 95.2057309689
390 22 2 76.3853061001 67.2450392975 95.2805698627
391 22 2 77.4026519059 67.2870944295 95.0890264249
392 22 2 78.3219828653 67.4922966863 94.6575491578
393 22 2 79.0645071404 67.8581689211 94.0344558904
394 22 2 79.56754835 68.367589348 93.2855297383
395 22 2 79.7902583543 68.990352147 92.4880231482
396 22 2 79.7173404535 69.6859206441 91.7236165438
397 23 1 13.8321867175 112.851731323 85.7268467712
398 23 1 13.5324768196 115.10938353 80.6938385704
399 23 2 13.7985134414 113.212049619 86.1468687041
400 23 2 13.903080013 113.999346283 86.8122105755
401 23 2 14.2052275861 114.88157753 87.2636802659
402 23 2 14.6643277548 115.790766284 87.4535561633
403 23 2 15.2254463036 116.656478363 87.3579602305
404 23 2 15.8243503144 117.412242368 86.9790344249
405 23 2 16.3933628253 118.001608373 86.3447454642
406 23 2 16.8675314047 118.383293185 85.5063357354
407 23 2 17.1905483917 118.534943199 84.533652688
408 23 2 17.3198831893 118.455171862 83.5087824254
409 23 2 17.2306588142 118.163686064 82.5185677763
410 23 2 16.9179193676 117.699489898 81.6466928028
411 23 2 16.3970817521 117.117329548 80.9660552219
412 23 2 15.7025304622 116.482703317 80.5321219734
413 23 2 14.8844835294 115.865891634 80.3778735566
414 23 2 14.0044152831 115.335551177 80.510797946
415 24 1 75.7807239506 21.8713721851 86.1679644513
416 24 1 78.7494427059 17.6162062701 84.2710556371
417 24 2 75.4204376842 22.0851524006 85.8048206592
418 24 2 74.9342587381 22.4886340466 84.9836735318
419 24 2 74.7241383838 22.8515773503 84.0362709742
420 24 2 74.8028391242 23.1251197466 83.0400627821
421 24 2 75.1567981915 23.2685473242 82.0769472543
422 24 2 75.7473637569 23.2530057898 81.2258063818
423 24 2 76.5143179419 23.0641304597 80.555315965
424 24 2 77.3813655166 22.7033555625 80.1176859981
425 24 2 78.2630880063 22.1877835128 79.9439018677
426 24 2 79.0727293568 21.548626072 80.0409001176
427 24 2 79.7301035174 20.8283594795 80.3909362013
428 24 2 80.1689031845 20.0768528571 80.9532018501
429 24 2 80.3427435356 19.3468227718 81.6675446377
430 24 2 80.2293900814 18.6890282619 82.4599507131
431 24 2 79.8327852807 18.1476442857 83.2492909651
432 24 2 79.1826891952 17.7562352928 83.9547157244
433 25 1 77.6600487726 57.6912089233 14.9448426362
434 25 1 83.1556346694 57.2830384127 15.3320422568
435 25 2 77.4261793602 58.0437598004 15.3031645097
436 25 2 77.1163556108 58.5840007717 16.1311735365
437 25 2 77.0070865959 58.9392542974 17.0982853325
438 25 2 77.121203289 59.0913985445 18.1167545366
439 25 2 77.4611756533 59.0408245476 19.0941546969
440 25 2 78.0088875112 58.8064005677 19.9418026955
441 25 2 78.7272877856 58.4237523002 20.5828419769
442 25 2 79.5637676064 57.9420156882 20.9592478181
443 25 2 80.4549554684 57.4193583126 21.0371161268
444 25 2 81.3324933747 56.9176775724 20.8097537089
445 25 2 82.1292674855 56.4969589025 20.2982883352
446 25 2 82.7855253648 56.2098082614 19.5497430017
447 25 2 83.2543222558 56.0966572389 18.6327499089
448 25 2 83.5057999697 56.1820778243 17.6312948205
449 25 2 83.5299083798 56.472542736 16.6370619851
450 25 2 83.3373214637 56.9558354497 15.7410773627
451 26 1 46.510014736 12.4802690748 6.40938302808
452 26 1 44.0305066601 11.9065379313 11.3125313369
453 26 2 47.0610207319 12.537563179 6.43154980731
454 26 2 48.0401943085 12.8106206415 6.63182147349
455 26 2 48.8792068481 13.2666119151 7.03379153209
456 26 2 49.5061958091 13.8518658846 7.61500805374
457 26 2 49.8686240325 14.500929486 8.33668127306
458 26 2 49.9380683631 15.1425335776 9.14721917206
459 26 2 49.7128103447 15.7060889323 9.98692995474
460 26 2 49.2179928525 16.1281202566 10.7934627947
461 26 2 48.5033283873 16.3580517942 11.5074909464
462 26 2 47.6385679138 16.3628171708 12.0781192192
463 26 2 46.7071432467 16.1298733061 12.4675229385
464 26 2 45.7985624638 15.6683436815 12.654395563
465 26 2 45.0002514839 15.0081867597 12.6358907197
466 26 2 44.3895854281 14.1974653506 12.4278816425
467 26 2 44.0268360839 13.2979658145 12.0635143702
468 26 2 43.9496782935 12.3795664011 11.5901865727
469 27 1 3.95619848574 19.9210216534 76.8513727229
470 27 1 3.25326880473 25.3999544264 76.7794241692
471 27 2 4.33963171174 19.7393796575 77.2082574866
472 27 2 5.19056193456 19.5634649583 77.7725462297
473 27 2 6.14499464561 19.6234300256 78.171184414
474 27 2 7.11318866728 19.9255302326 78.3828110014
475 27 2 8.00414851525 20.453950982 78.403110561
476 27 2 8.73391839374 21.1722491636 78.2452066093
477 27 2 9.23323454183 22.0266748469 77.9384654366
478 27 2 9.4538384402 22.9510704436 77.5258194477
479 27 2 9.37287544615 23.8729007945 77.0598539889
480 27 2 8.99497793322 24.719864556 76.5980143331
481 27 2 8.35184306268 25.4264842739 76.1973696978
482 27 2 7.49934367207 25.9400744783 75.9094115375
483 27 2 6.51243561531 26.2255438239 75.7753602361
484 27 2 5.47832573703 26.2685935716 75.8224079782
485 27 2 4.48852320172 26.077020881 76.0612402551
486 27 2 3.63049867797 25.6800081197 76.48506191
487 28 1 49.3508634682 90.4935934393 4.61717038753
488 28 1 51.5372388145 85.9976236923 2.26684914565
489 28 2 49.2770891763 90.4580800052 5.16551128324
490 28 2 49.0334150197 90.188774314 6.13584491725
491 28 2 48.685435544 89.66998136 6.96241261961
492 28 2 48.2805512043 88.9393049513 7.5752997776
493 28 2 47.8713491821 88.0536615065 7.92406818902
494 28 2 47.5108102041 87.0840922752 7.98235336947
495 28 2 47.2474794906 86.1092881183 7.75026760466
496 28 2 47.1210419883 85.2084170462 7.25438971589
497 28 2 47.1587051937 84.453908266 6.54534247147
498 28 2 47.3727192625 83.9048504534 5.69317845676
499 28 2 47.7592604401 83.6016059773 4.78099496818
500 28 2 48.2987795877 83.562131978 3.89735991682
501 28 2 48.9577840328 83.7803436219 3.12823909997
502 28 2 49.6918903379 84.2266687178 2.54916064856
503 28 2 50.4498697312 84.8507431429 2.21833083981
504 28 2 51.1783174732 85.5860013982 2.1713287507
505 29 1 97.0625744013 77.6160450099 13.0643547088
506 29 1 100.181918564 80.6903931214 9.69744711522
507 29 2 97.2617196389 77.5572369944 13.5784212218
508 29 2 97.8315466468 77.3869021081 14.4267921422
509 29 2 98.6179101845 77.1666483622 15.064421098
510 29 2 99.5564388729 76.9339993591 15.4365613318
511 29 2 100.568891886 76.7276084958 15.5126646738
512 29 2 101.570290394 76.5837358098 15.2891659258
513 29 2 102.476663154 76.5329429741 14.7898078191
514 29 2 103.212700268 76.597307682 14.0634769284
515 29 2 103.718617475 76.7884113244 13.1797477909
516 29 2 103.95560533 77.1062833773 12.2225413734
517 29 2 103.909366579 77.5393987147 11.2824759004
518 29 2 103.591419316 78.0657280933 10.448607245
519 29 2 103.03804714 78.6547460591 9.80031172424
520 29 2 102.306992002 79.270213261 9.40005116009
521 29 2 101.472191179 79.8734795704 9.28767965101
522 29 2 100.617038089 80.427006938 9.47681097759
523 30 1 124.555098041 117.045024725 50.1768467907
524 30 1 122.176523627 112.093652753 49.5900841391
525 30 2 124.34272332 117.445492721 49.8576228089
526 30 2 123.976463092 118.036158545 49.0892366168
527 30 2 123.66345928 118.371545687 48.1602618649
528 30 2 123.413495901 118.416894677 47.1558158536
529 30 2 123.230611005 118.163882247 46.1678948871
530 30 2 123.112728616 117.631379975 45.2869890557
531 30 2 123.051847955 116.863734191 44.5938343065
532 30 2 123.034772687 115.926723928 44.1520535769
533 30 2 123.044313732 114.901565338 44.0023577346
534 30 2 123.060856005 113.877509058 44.1588348902
535 30 2 123.064146277 112.943705253 44.6076663041
536 30 2 123.035139206 112.181077814 45.3083859275
537 30 2 122.957733262 111.654948366 46.1975687741
538 30 2 122.820238347 111.409082372 47.1946119391
539 30 2 122.616441309 111.461700034 48.2090813377
540 30 2 122.346172261 111.803815562 49.1489545303
541 31 1 110.953334414 8.70115552311 29.4731252861
542 31 1 105.907876182 8.13365253299 27.2961359323
543 31 2 111.240301075 9.137509275 29.2870416305
544 31 2 111.716900022 9.86820236281 28.7281220782
545 31 2 112.066344389 10.441699527 27.9391736336
546 31 2 112.243041848 10.8190697751 26.9905853588
547 31 2 112.217145489 10.9792585588 25.9672970595
548 31 2 111.977274289 10.9210068399 24.9610572493
549 31 2 111.531550458 10.6629658481 24.0620605173
550 31 2 110.906859124 10.2419970714 23.3507265327
551 31 2 110.146397825 9.70981242976 22.8903700071
552 31 2 109.305739167 9.1282608722 22.7214297271
553 31 2 108.447765533 8.56369101003 22.8577826678
554 31 2 107.636937517 8.08090361847 23.2854791431
555 31 2 106.933418519 7.73724521909 23.9640142821
556 31 2 106.387591007 7.57738109774 24.8300199407
557 31 2 106.035464291 7.629224183 25.8030405374
558 31 2 105.895392373 7.90139085747 26.7928663657
559 32 1 119.205444888 55.4991835718 67.2727877463
560 32 1 124.554473876 55.3062420945 68.6397747738
561 32 2 118.868107785 55.6792694214 67.6742280954
562 32 2 118.349981713 55.8548242345 68.5541007519
563 32 2 118.027847452 55.8193835186 69.5381858522
564 32 2 117.941665356 55.5900149782 70.5448698793
565 32 2 118.109889371 55.2014623206 71.4904794839
566 32 2 118.527785003 54.7029784601 72.2969080876
567 32 2 119.167860859 54.1538362461 72.898735088
568 32 2 119.982374413 53.6179259017 73.2491887718
569 32 2 120.907683608 53.1579316004 73.324409432
570 32 2 121.87004766 52.8296179713 73.1256241159
571 32 2 122.792348337 52.676747302 72.6790347832
572 32 2 123.601119072 52.7270907235 72.0334300673
573 32 2 124.233241252 52.9898969454 71.255738322
574 32 2 124.641697306 53.455049261 70.4249272808
575 32 2 124.799856234 54.0939876579 69.6248063588
576 32 2 124.703900948 54.8623119869 68.9363876491
577 33 1 71.704997653 50.8171627723 118.262182484
578 33 1 69.0755413845 49.8831026195 123.029936926
579 33 2 72.2471746549 50.9221901867 118.311120494
580 33 2 73.1883253471 51.2746065028 118.563088996
581 33 2 73.9648532512 51.7908702138 119.014670889
582 33 2 74.5110338187 52.4118594621 119.638777573
583 33 2 74.7821380451 53.0689069372 120.392595273
584 33 2 74.7585093993 53.6900587177 121.221487403
585 33 2 74.4473554636 54.2066326788 122.063974544
586 33 2 73.8820909819 54.5594786843 122.857338126
587 33 2 73.1192921955 54.7043699636 123.543337062
588 33 2 72.2335400694 54.6160342638 124.073516264
589 33 2 71.3106224368 54.2904573474 124.413623197
590 33 2 70.4397146677 53.74524888 124.546729907
591 33 2 69.705251572 53.018037356 124.474775953
592 33 2 69.1792313922 52.1630403618 124.218391629
593 33 2 68.9146533561 51.246122788 123.815017563
594 33 2 68.9406869392 50.3387934205 123.315492106