LAMMPS input file for bananas

648 atoms

2 atom types

0 53.5546360066 xlo xhi
0 53.5546360066 ylo yhi
0 53.5546360066 zlo zhi

Masses

 1 1
 2 1

Atoms

1 1 1 11.8959290872 20.6855405889 31.626549644
2 1 1 16.8006118126 22.9897991021 32.700081725
3 1 2 11.8112097917 20.1935306032 31.867652118
4 1 2 11.8625408922 19.2223512832 32.2248997321
5 1 2 12.1883918914 18.2642625337 32.447019262
6 1 2 12.7673723239 17.409162359 32.5308963222
7 1 2 13.555019653 16.7375616303 32.4860169589
8 1 2 14.487851912 16.3132457344 32.3336030222
9 1 2 15.4891539162 16.1774607069 32.104677851
10 1 2 16.4759696461 16.3451537657 31.8372385788
11 1 2 17.3666634679 16.8036109123 31.5727927966
12 1 2 18.0883610025 17.5136157787 31.3525752464
13 1 2 18.5835914308 18.4130240948 31.2137893856
14 1 2 18.815525805 19.4224279719 31.1862163903
15 1 2 18.7713339092 20.4523937202 31.2895006814
16 1 2 18.4633536988 21.4116134903 31.5313593879
17 1 2 17.9279667289 22.2152277394 31.9068789511
18 1 2 17.2222820733 22.7925599522 32.3989629824
19 2 1 47.4743413795 39.2184061413 20.4474768574
20 2 1 50.7489630363 38.6378570114 16.0363764534
21 2 2 47.0210022334 38.8992491125 20.4454774407
22 2 2 46.1452912258 38.3910958046 20.2255673273
23 2 2 45.3085903472 38.0243470103 19.7368169075
24 2 2 44.593908294 37.8161242277 19.0161763266
25 2 2 44.0731320727 37.7690997329 18.1217318983
26 2 2 43.8004746914 37.8712530087 17.1274116924
27 2 2 43.8075337893 38.0969663828 16.1162471889
28 2 2 44.1004115959 38.4093600103 15.1728051806
29 2 2 44.6591587297 38.7636533728 14.3754797358
30 2 2 45.4395925301 39.1112469032 13.7893467884
31 2 2 46.3773241899 39.4041517059 13.460232641
32 2 2 47.393627622 39.5993636169 13.4105370192
33 2 2 48.4026151325 39.6627829181 13.637191397
34 2 2 49.3190658542 39.5723224355 14.1119386845
35 2 2 50.0661934008 39.3199207262 14.7839087861
36 2 2 50.5826447408 38.9122768571 15.584255274
37 3 1 52.5938903894 31.5487184077 2.94351737323
38 3 1 49.7247276132 35.8325609598 4.92709722129
39 3 2 52.4852588093 31.4192309614 2.41548918353
40 3 2 52.0586069397 31.1826025947 1.5014732048
41 3 2 51.3745781126 30.9865530724 0.748400061144
42 3 2 50.4933181739 30.8663260719 0.21700905644
43 3 2 49.4929500578 30.8502542506 -0.0521662398788
44 3 2 48.4624530909 30.9571767997 -0.0424925193603
45 3 2 47.4935527638 31.194722302 0.237247183859
46 3 2 46.672360198 31.5586134076 0.753654043145
47 3 2 46.0715233474 32.0330567023 1.45175765314
48 3 2 45.7436053315 32.5921822354 2.26002643529
49 3 2 45.7162934473 33.2024014966 3.09688755006
50 3 2 45.9898755465 33.8254689188 3.8781620432
51 3 2 46.5372137983 34.4219678592 4.52473753246
52 3 2 47.3062182304 34.9549033214 4.96977908976
53 3 2 48.2245945906 35.3930739499 5.1648210663
54 3 2 49.2064337745 35.7139159506 5.08418460683
55 4 1 47.4605666383 36.8527999023 28.8246951009
56 4 1 50.4392435503 33.3500825132 31.8867933696
57 4 2 46.9459586977 36.6821897851 28.7087104315
58 4 2 46.0936049442 36.1663311359 28.424399081
59 4 2 45.4470184004 35.429413799 28.0892443538
60 4 2 45.0600487713 34.5300882033 27.7502487931
61 4 2 44.9628823741 33.541807856 27.4547650242
62 4 2 45.1592907356 32.5461342527 27.2461796885
63 4 2 45.6262868285 31.625302764 27.1599588677
64 4 2 46.3162202766 30.8547271022 27.2204154451
65 4 2 47.1611205599 30.2961255623 27.4384930509
66 4 2 48.0788923453 29.9918955648 27.8107685801
67 4 2 48.9807982574 29.9612492439 28.319764199
68 4 2 49.7795470523 30.1984623129 28.9355404031
69 4 2 50.3972499821 30.6733958178 29.6184249232
70 4 2 50.7725201452 31.3342432219 30.3226287461
71 4 2 50.866067739 32.112252434 31.0004196614
72 4 2 50.66428122 32.9279923767 31.6064729246
73 5 1 22.0107119283 47.3370328148 25.1781312272
74 5 1 19.3186071235 43.3439590137 27.8847757182
75 5 2 21.8740577689 47.8532895493 25.3270815976
76 5 2 21.3990016596 48.7408797022 25.571939566
77 5 2 20.6755242556 49.4556513441 25.7697575557
78 5 2 19.7672909346 49.9305618444 25.9214884442
79 5 2 18.7548070824 50.1204312747 26.0322858249
80 5 2 17.7280802418 50.0060604379 26.1110342713
81 5 2 16.7784161663 49.5959808245 26.1695395314
82 5 2 15.9900965441 48.9256769892 26.2214524657
83 5 2 15.4326969476 48.0543522293 26.2810248075
84 5 2 15.1547452064 47.059532362 26.3618101555
85 5 2 15.1792982248 46.0299994536 26.4754285997
86 5 2 15.5018404066 45.057699571 26.6305075811
87 5 2 16.0906952402 44.2293621441 26.8318955235
88 5 2 16.8899125273 43.6185948096 27.0802199127
89 5 2 17.8243680942 43.2791742717 27.3718301029
90 5 2 18.8066111597 43.2401446995 27.6991300631
91 6 1 2.24448829611 24.5604423246 50.8094060965
92 6 1 2.42444721042 19.6403921892 48.3036701734
93 6 2 2.55796989905 24.9533415954 50.5754380739
94 6 2 3.31160808951 25.5231685947 50.1502596643
95 6 2 4.22024269991 25.8310529052 49.7590558718
96 6 2 5.19874701808 25.8451419108 49.418790078
97 6 2 6.15562589476 25.5603616521 49.1417828023
98 6 2 7.00135528184 24.9988793044 48.934588719
99 6 2 7.65654211015 24.2080826986 48.7973992167
100 6 2 8.05916075545 23.2562610477 48.7240249534
101 6 2 8.17020650833 22.226380567 48.7024599989
102 6 2 7.97725074924 21.2085223253 48.7159761425
103 6 2 7.49557378389 20.2916715969 48.7446476257
104 6 2 6.76677208428 19.5556070908 48.7671673209
105 6 2 5.85496688142 19.0636293352 48.7627888198
106 6 2 4.84095968652 18.8567910035 48.7132174126
107 6 2 3.81486744919 18.9501550726 48.6042776023
108 6 2 2.86790863838 19.331421873 48.4272051629
109 7 1 1.81271979477 13.1449082403 31.9830059549
110 7 1 7.24434916659 12.4651438599 32.7268566225
111 7 2 1.49137932977 12.8517611218 32.3267888231
112 7 2 1.02679331107 12.1247136629 32.9003843557
113 7 2 0.783920623021 11.2247378096 33.352608119
114 7 2 0.794764057238 10.234967258 33.6586909283
115 7 2 1.06820085891 9.24672025076 33.8071839564
116 7 2 1.58917358964 8.3511761638 33.8010022632
117 7 2 2.3200625727 7.63106474952 33.6571590964
118 7 2 3.20411482602 7.15312554109 33.4052151788
119 7 2 4.17061694481 6.96202472242 33.0845843277
120 7 2 5.14134043941 7.07628392481 32.740940991
121 7 2 6.03767205306 7.48659202981 32.422057143
122 7 2 6.78777915008 8.15665385278 32.1734479968
123 7 2 7.33315706869 9.02649835193 32.0342234143
124 7 2 7.63396166452 10.0179448285 32.0335231468
125 7 2 7.67264099787 11.0417288886 32.1878608245
126 7 2 7.45553514612 12.0056386538 32.4996187832
127 8 1 32.0462356559 21.7528537772 41.6821506926
128 8 1 35.3202794071 21.8533390263 46.1305808979
129 8 2 32.0761837542 21.2886343804 41.3805134087
130 8 2 32.363721995 20.4611370516 40.8273227163
131 8 2 32.9296876203 19.7405927387 40.34364016
132 8 2 33.7242391164 19.1792659968 39.987199113
133 8 2 34.6766999786 18.8149091248 39.8041352253
134 8 2 35.7020006856 18.6673211448 39.8247812822
135 8 2 36.7084325586 18.7365431733 40.060902452
136 8 2 37.606006763 19.0028546743 40.5046239223
137 8 2 38.3146565495 19.4285709331 41.1291486682
138 8 2 38.7715351246 19.9614779173 41.8911999296
139 8 2 38.9367439677 20.5395914466 42.7349657719
140 8 2 38.7969694748 21.0968068845 43.597186195
141 8 2 38.366696458 21.5689244002 44.412919113
142 8 2 37.686887893 21.8995006107 45.1214596519
143 8 2 36.8212512542 22.0449932448 45.6718732365
144 8 2 35.8504317479 21.9787299046 46.0276381409
145 9 1 46.1131048522 17.5614602216 35.8110410536
146 9 1 43.4133207671 15.2028888972 40.0141706332
147 9 2 46.1146454296 18.1158549007 35.8161159379
148 9 2 45.8855267557 19.1255577375 35.8542581186
149 9 2 45.3757717454 20.0232494397 35.9422890695
150 9 2 44.633692275 20.7308298335 36.0909432221
151 9 2 43.7287759744 21.1875268824 36.3054293653
152 9 2 42.7453526154 21.3554358964 36.5849558778
153 9 2 41.7749076784 21.222974443 36.9228028826
154 9 2 40.9077436951 20.8059380548 37.3069347457
155 9 2 40.2247494146 20.1460605094 37.721097092
156 9 2 39.7900270096 19.3072099067 38.146298348
157 9 2 39.6450493351 18.3695672623 38.5625407732
158 9 2 39.8048797882 17.4223182226 38.9506432006
159 9 2 40.25679932 16.555524031 39.2939893486
160 9 2 40.9614657425 15.8519126866 39.5800423511
161 9 2 41.8564996644 15.3793385083 39.8014874589
162 9 2 42.8621702056 15.1845973946 39.9568987598
163 10 1 28.3792997869 19.5584451726 31.1105795885
164 10 1 23.6504001086 18.2801391743 28.5568699989
165 10 2 28.5051051868 20.0983991946 31.1126395889
166 10 2 28.6983721675 21.0906468707 30.8856099994
167 10 2 28.8073551053 21.9882572047 30.3797756206
168 10 2 28.8048412359 22.7174349609 29.643743358
169 10 2 28.6737804314 23.2197370828 28.747102039
170 10 2 28.4088392731 23.4573996218 27.7740795771
171 10 2 28.016887179 23.4167798198 26.8158658229
172 10 2 27.5163702742 23.1095996102 25.9623008528
173 10 2 26.9356300763 22.5718771955 25.2936862865
174 10 2 26.3103202415 21.8606440835 24.8734660083
175 10 2 25.6801568294 21.0487468188 24.7424434274
176 10 2 25.0852982902 20.218207214 24.9150623556
177 10 2 24.5626851293 19.4527462814 25.3780904929
178 10 2 24.1426728787 18.8301532865 26.091825516
179 10 2 23.8462652721 18.4151954636 26.993713839
180 10 2 23.6831998099 18.2537146566 28.0040522057
181 11 1 46.3525270153 15.8980246996 3.50260636926
182 11 1 42.6954582944 12.09281833 5.13485754992
183 11 2 46.5174175474 16.2487386583 3.89908136169
184 11 2 46.5945319875 16.9292579502 4.67651101616
185 11 2 46.3670619437 17.5779099635 5.45172579672
186 11 2 45.8568447769 18.1239581347 6.1693328261
187 11 2 45.1114894925 18.5060179662 6.77919001958
188 11 2 44.2000373072 18.6776520594 7.240976402
189 11 2 43.2066687258 18.6116027592 7.52786725686
190 11 2 42.2230307139 18.3022766167 7.62897912755
191 11 2 41.3398833218 17.7662542168 7.55036181531
192 11 2 40.6388271482 17.0407789024 7.31444695605
193 11 2 40.184865664 16.1803621432 6.95800343665
194 11 2 40.0204803197 15.2518149609 6.52878600923
195 11 2 40.1617584743 14.3281582832 6.08118257311
196 11 2 40.5969270762 13.4819672815 5.67125686318
197 11 2 41.2874257448 12.7787563376 5.35163839027
198 11 2 42.1714214464 12.2710075833 5.16672540194
199 12 1 44.4416365321 33.7668492854 5.49326689556
200 12 1 42.7958885435 30.3005053233 9.46742896521
201 12 2 44.3388492198 34.3024249969 5.59314188603
202 12 2 43.9295322956 35.2254308231 5.82545613795
203 12 2 43.2745557921 35.9744851389 6.11420070143
204 12 2 42.4371084063 36.4825028701 6.45191340783
205 12 2 41.4970105688 36.7043687829 6.82666877312
206 12 2 40.5434390243 36.6210496171 7.22316497396
207 12 2 39.6667986099 36.2413289164 7.62411856793
208 12 2 38.9504820959 35.6010064325 8.01183983315
209 12 2 38.4632691574 34.7596350729 8.36984513913
210 12 2 38.2530572912 33.795092813 8.68435938566
211 12 2 38.3424960865 32.7964843263 8.94557156633
212 12 2 38.7269227757 31.8560193319 9.1485290156
213 12 2 39.374787233 31.0606079251 9.29358883097
214 12 2 40.2305276844 30.4839389543 9.38638532454
215 12 2 41.2196350142 30.1797634795 9.43731647049
216 12 2 42.2554440728 30.1769955067 9.46059615755
217 13 1 31.9307736994 39.6258394852 33.2873276742
218 13 1 28.2210619125 37.7289626103 36.9147079466
219 13 2 32.1768184929 40.1012039613 33.4317996872
220 13 2 32.4156135225 41.0621628578 33.7367340149
221 13 2 32.3507404456 42.0381077608 34.0784547216
222 13 2 31.9902918741 42.9377450174 34.4447601204
223 13 2 31.3693013364 43.6767362125 34.8212076954
224 13 2 30.5465500645 44.1853853904 35.1924304986
225 13 2 29.5992092423 44.4149916545 35.5435378059
226 13 2 28.615806058 44.342288124 35.8614723668
227 13 2 27.688154688 43.9715626479 36.1362005381
228 13 2 26.9029876794 43.3342669789 36.3616268235
229 13 2 26.3340505111 42.4861500303 36.5361494618
230 13 2 26.0353798896 41.5021765118 36.6628064232
231 13 2 26.0363784482 40.469694096 36.7489985064
232 13 2 26.3391347754 39.4804719121 36.8058147757
233 13 2 26.9182330454 38.6223360347 36.847021822
234 13 2 27.7230696031 37.9711643718 36.8878089756
235 14 1 41.9696409059 49.3916930296 2.08973320351
236 14 1 38.2878600843 46.3562884701 4.87339988665
237 14 2 41.8809693366 49.9387514126 2.10541970958
238 14 2 41.4971478169 50.9004842787 2.07076503495
239 14 2 40.8564463127 51.7085989302 1.97125471506
240 14 2 40.0112311722 52.2918930332 1.83403457541
241 14 2 39.0325096147 52.599656046 1.6896875908
242 14 2 38.0034576127 52.6062913493 1.56944632889
243 14 2 37.0118386241 52.3136493096 1.50234618514
244 14 2 36.1420041879 51.7508586233 1.51257888415
245 14 2 35.4672055063 50.9716713141 1.61728746855
246 14 2 35.0429167941 50.0495633792 1.82500375657
247 14 2 34.9017789517 49.0710376491 2.13487068956
248 14 2 35.0506244347 48.1277392854 2.53672045058
249 14 2 35.4698544935 47.3081025695 3.0120012338
250 14 2 36.1152255471 46.6892903539 3.53546819196
251 14 2 36.9218818673 46.3301608751 4.07748443674
252 14 2 37.810267005 46.2659029817 4.60672236195
253 15 1 8.37035485962 38.4107266076 25.2092008013
254 15 1 3.25188986185 37.8947399377 27.2224233137
255 15 2 8.40943708656 38.710438203 24.7444136165
256 15 2 8.30963690743 39.1290823125 23.801955636
257 15 2 7.98308647972 39.342603099 22.842151644
258 15 2 7.44671005096 39.3454579827 21.9557306449
259 15 2 6.73655694789 39.1513060177 21.2267329797
260 15 2 5.90451577663 38.791762906 20.724850273
261 15 2 5.01358491494 38.3135193103 20.499073228
262 15 2 4.13213037848 37.7740851253 20.5732262549
263 15 2 3.32765444117 37.2365476044 20.9437959394
264 15 2 2.66064298339 36.763821125 21.5802512812
265 15 2 2.17905236559 36.4129127115 22.4278265129
266 15 2 1.91393833426 36.229725997 23.4125128534
267 15 2 1.87662537363 36.24487723 24.4478042106
268 15 2 2.05767450918 36.4709046854 25.4425819803
269 15 2 2.42774364497 36.9011258339 26.3094202635
270 15 2 2.94026201722 37.5102464368 26.9725545036
271 16 1 6.62584925507 47.4480137925 33.8834090081
272 16 1 5.01674485523 45.5696855284 38.8231111271
273 16 2 6.68080121805 47.9986583194 33.8494608884
274 16 2 6.56768319244 49.0280970142 33.8796320203
275 16 2 6.19029182865 49.9790325083 34.0431785142
276 16 2 5.59044760784 50.7690350375 34.3423990446
277 16 2 4.83024699455 51.330343447 34.7672259601
278 16 2 3.98640250988 51.6160414399 35.2961429231
279 16 2 3.14325059025 51.604333872 35.8981460663
280 16 2 2.38506454662 51.3005333211 36.5355699125
281 16 2 1.78837327747 50.7365758598 37.1675204821
282 16 2 1.4149858642 49.9681101677 37.7536026698
283 16 2 1.30635783859 49.069425303 38.2576021511
284 16 2 1.47981262188 48.1266794534 38.6507862205
285 16 2 1.92696254123 47.2300468477 38.9145227013
286 16 2 2.61447334365 46.4654986158 39.0419782183
287 16 2 3.48710252409 45.9069667498 39.0387410421
288 16 2 4.47273453213 45.6096054009 38.9223117329
289 17 1 36.0949146211 17.6638433701 26.2492712478
290 17 1 34.0345227352 19.6031945073 21.5046223141
291 17 2 36.3631202079 18.0383211143 26.5578385344
292 17 2 36.9775518023 18.7832823108 26.9332804641
293 17 2 37.6802474251 19.540167462 27.0157046169
294 17 2 38.396351681 20.255657256 26.7949806707
295 17 2 39.0497870138 20.8802054576 26.2886094423
296 17 2 39.5701879723 21.3725549141 25.540127735
297 17 2 39.8993148327 21.7034980355 24.6151400749
298 17 2 39.9963619941 21.8585389877 23.5953390341
299 17 2 39.8416772999 21.8392149492 22.5710591709
300 17 2 39.4385532793 21.6629560012 21.6330432764
301 17 2 38.812927042 21.3614964227 20.8641714112
302 17 2 38.0110161803 20.9779821955 20.3319066101
303 17 2 37.0951061586 20.5630383631 20.0821458062
304 17 2 36.13787316 20.1701546937 20.1350364482
305 17 2 35.2157598468 19.8508102306 20.4831401148
306 17 2 34.4020078156 19.6497811149 21.0921105061
307 18 1 31.0973512518 28.0549364712 7.99899981079
308 18 1 35.1561150197 28.7669009744 4.31966097293
309 18 2 31.1311168973 28.3767060848 8.44922840271
310 18 2 31.4150579264 28.8973945531 9.29876417133
311 18 2 31.9676986549 29.2857651848 10.0843890747
312 18 2 32.7450218257 29.522936083 10.7270154548
313 18 2 33.6825309776 29.603806802 11.1605895869
314 18 2 34.7011291255 29.5375232398 11.3381122999
315 18 2 35.714328239 29.3466440139 11.2359228251
316 18 2 36.6361323951 29.0650843034 10.8558554122
317 18 2 37.3888760772 28.7350245713 10.2250721423
318 18 2 37.9103031787 28.403065928 9.39358717663
319 18 2 38.1592414813 28.1159825644 8.42970809965
320 18 2 38.1193553923 27.9164584098 7.41380986518
321 18 2 37.8006348904 27.8391966054 6.43100883422
322 18 2 37.2384849658 27.9077564061 5.56340464613
323 18 2 36.49049855 28.1324058173 4.88259705592
324 18 2 35.6312070736 28.5091856934 4.44315980799
325 19 1 19.817943865 34.6898253212 28.3202344016
326 19 1 19.1714603024 40.1650582497 27.9711291969
327 19 2 20.2889713472 34.5251694319 28.5619018119
328 19 2 21.2681433084 34.3671880274 28.8614250286
329 19 2 22.2985556237 34.4268402228 28.9516585435
330 19 2 23.288239957 34.7116970527 28.8383822525
331 19 2 24.1489402189 35.2088027508 28.5459254262
332 19 2 24.8041568734 35.8858556341 28.1149491624
333 19 2 25.1961196661 36.6941523146 27.5987402351
334 19 2 25.2910532285 37.5730268829 27.0583541478
335 19 2 25.0822556124 38.4553804436 26.5570500878
336 19 2 24.590709155 39.2737970007 26.1545250197
337 19 2 23.8631679944 39.966688245 25.9014724672
338 19 2 22.9678965553 40.4839071643 25.8349619338
339 19 2 21.9884474289 40.7913188091 25.9750601162
340 19 2 21.0160457777 40.8739116021 26.3230018792
341 19 2 20.1412744056 40.7371656038 26.8610777007
342 19 2 19.4458173775 40.406553019 27.5542478471
343 20 1 5.05940989809 21.4866163982 39.1359022031
344 20 1 8.93276729197 17.6561782541 40.0539638488
345 20 2 5.21392258951 22.0068868333 39.2491545345
346 20 2 5.5706804833 22.8858701533 39.6657624312
347 20 2 6.00231763627 23.5734836674 40.3094448332
348 20 2 6.48774723205 24.0070898542 41.115542714
349 20 2 7.00097941692 24.1472032814 42.0045933105
350 20 2 7.51349020544 23.9810895971 42.8895729412
351 20 2 7.99682136554 23.5239262322 43.6838289822
352 20 2 8.42517431029 22.8174190182 44.3089780224
353 20 2 8.77776157013 21.926000812 44.7020503019
354 20 2 9.04070151519 20.9309586129 44.8212292371
355 20 2 9.20828362872 19.9230244706 44.6496628907
356 20 2 9.28348900548 18.9941055008 44.1969999809
357 20 2 9.27771863283 18.2289067973 43.4985104261
358 20 2 9.20975422132 17.6972107894 42.6118705865
359 20 2 9.10404630187 17.4475167597 41.6119062179
360 20 2 8.98848562528 17.5026202642 40.5837723039
361 21 1 42.1102654729 17.7607414822 29.8694585276
362 21 1 44.5002727905 17.7835760291 34.8499539514
363 21 2 42.2795465353 17.355568933 29.5309903381
364 21 2 42.8102658373 16.6750668168 28.9576632903
365 21 2 43.5777789789 16.1361068365 28.5173273638
366 21 2 44.5140726483 15.7730991803 28.2623183106
367 21 2 45.53574964 15.6044164526 28.2280798338
368 21 2 46.5516302865 15.6307190598 28.4299329886
369 21 2 47.4710632418 15.8348950165 28.8616797089
370 21 2 48.2121881094 16.1836196564 29.4961677446
371 21 2 48.7093967981 16.6303930875 30.2877655164
372 21 2 48.9193135245 17.1197785323 31.1765213128
373 21 2 48.8247484 17.5924552423 32.0936277277
374 21 2 48.4362642427 17.9906254253 32.9676932721
375 21 2 47.7912138048 18.2632823602 33.7312495173
376 21 2 46.9503351695 18.3708595228 34.3269006618
377 21 2 45.9922156366 18.2888369689 34.7125550053
378 21 2 45.0061287006 18.0099762618 34.8652614946
379 22 1 8.08144193319 15.361544733 39.241192631
380 22 1 7.93468931186 14.0982694997 44.6171195664
381 22 2 7.88653009988 15.8647699511 39.1140889522
382 22 2 7.33803995379 16.7370799542 39.0059971886
383 22 2 6.60026891019 17.4600100391 39.0867188749
384 22 2 5.74688289563 17.9781742461 39.3636451754
385 22 2 4.86208583224 18.2548504776 39.8262837284
386 22 2 4.03294467531 18.2753276198 40.4472149965
387 22 2 3.341453493 18.0482464208 41.1845914846
388 22 2 2.8570599262 17.6048119103 41.9859520267
389 22 2 2.63033522166 16.9959491437 42.7930034817
390 22 2 2.68836479802 16.28766152 43.5469339967
391 22 2 3.03227948231 15.555014748 44.1937735507
392 22 2 3.63715243806 14.875294808 44.6893131774
393 22 2 4.45427117986 14.3209635407 45.0031344947
394 22 2 5.41557758617 13.9530539449 45.1213822584
395 22 2 6.4398712152 13.8156071817 45.0480272313
396 22 2 7.44021050818 13.9316583415 44.8045042582
397 23 1 39.5066188083 26.2818918045 45.6991047994
398 23 1 37.931683204 25.905157783 50.9807371589
399 23 2 39.8786756435 26.6792883286 45.594074794
400 23 2 40.4221810443 27.5578440161 45.5153868378
401 23 2 40.7348496762 28.5412135231 45.6085144405
402 23 2 40.7993719775 29.5388494976 45.8805610291
403 23 2 40.6210562614 30.4589042367 46.3223220433
404 23 2 40.2273448776 31.21660136 46.9091239065
405 23 2 39.6653129147 31.7419629501 47.6030729562
406 23 2 38.9973774327 31.9861878519 48.3565093506
407 23 2 38.2956083139 31.9260997685 49.116351135
408 23 2 37.6351592866 31.5662597181 49.8289325209
409 23 2 37.0874178627 30.9385503094 50.4448953786
410 23 2 36.7134985578 30.0992697273 50.923688099
411 23 2 36.5586724655 29.1240003037 51.2372617645
412 23 2 36.6482409189 28.1007193898 51.3726267327
413 23 2 36.9852293414 27.121780456 51.3330366076
414 23 2 37.5501114876 26.2754953194 51.1376916824
415 24 1 30.0035680875 9.01037213736 34.7776344169
416 24 1 32.5633896736 12.0479677194 38.6166860691
417 24 2 29.9127872109 9.2702742185 34.2963950495
418 24 2 29.6529183745 9.92352637184 33.5353564018
419 24 2 29.3105755288 10.7501533989 33.0129206208
420 24 2 28.9330449993 11.6851400571 32.7747596261
421 24 2 28.5708203749 12.6535944134 32.8406344508
422 24 2 28.2730001521 13.5775740431 33.2025940754
423 24 2 28.0828125383 14.3831902744 33.8257001424
424 24 2 28.0336753164 15.0073429426 34.6512114938
425 24 2 28.1461499029 15.4034718019 35.6019382713
426 24 2 28.4260672301 15.5458003672 36.5892775649
427 24 2 28.8639962719 15.4316853718 37.5212893316
428 24 2 29.4361036567 15.0818576942 38.3110764848
429 24 2 30.1063260157 14.5385327939 38.8847053312
430 24 2 30.8296570624 13.8615628851 39.1879444294
431 24 2 31.5562497952 13.1229815671 39.1912076407
432 24 2 32.2359599188 12.4004381548 38.8922508271
433 25 1 27.5068429445 44.134959612 33.4191662511
434 25 1 25.4870524813 40.6466053774 37.1967080814
435 25 2 27.4180259441 44.6717374098 33.525762331
436 25 2 27.0296290809 45.6044582771 33.7551739077
437 25 2 26.386205247 46.3716524204 34.0213860929
438 25 2 25.5487425934 46.904021533 34.3191938211
439 25 2 24.5959153909 47.1536709819 34.6405121773
440 25 2 23.6169130806 47.0984752759 34.9751133157
441 25 2 22.703310895 46.7440947451 35.3115587004
442 25 2 21.9407230196 46.1234596165 35.6382416975
443 25 2 21.4009990894 45.2937685121 35.9444454884
444 25 2 21.1356752863 44.3312749473 36.2213198796
445 25 2 21.1712769544 43.3243370269 36.4626879738
446 25 2 21.5069008848 42.36536384 36.6656091781
447 25 2 22.1142976419 41.5423926181 36.8306472305
448 25 2 22.9404464228 40.9310643775 36.9618188172
449 25 2 23.9123877627 40.5877294422 37.0662274623
450 25 2 24.9438735945 40.5443112628 37.1534160603
451 26 1 40.8139550993 12.4791133692 46.2689954726
452 26 1 37.7522311773 9.4246186486 49.7061308626
453 26 2 40.9865185445 12.963050373 46.477342351
454 26 2 41.0821018349 13.893453317 46.9230599832
455 26 2 40.8793491494 14.7789020878 47.4213789915
456 26 2 40.4006668968 15.5339241075 47.9450726632
457 26 2 39.6936117282 16.0849348481 48.4646014533
458 26 2 38.8265558761 16.3769448641 48.950805434
459 26 2 37.8824552071 16.3785719342 49.3775621454
460 26 2 36.9512880173 16.0849014661 49.7241675868
461 26 2 36.1218537507 15.517934449 49.977223332
462 26 2 35.4736791671 14.7245821223 50.1318577592
463 26 2 35.0697696908 13.772390141 50.1921700868
464 26 2 34.9508666344 12.7433819702 50.1708567406
465 26 2 35.131733737 11.7265826653 50.0880541083
466 26 2 35.5998114891 10.8099044763 49.9695031616
467 26 2 36.3163618979 10.072133881 49.8442032356
468 26 2 37.2199993524 9.5757504082 49.7417688169
469 27 1 25.1904173276 8.91941247068 6.65630486659
470 27 1 20.3227618547 6.33167770393 6.2991633885
471 27 2 25.1982450617 9.43236648212 6.44607048127
472 27 2 25.1157972686 10.2868164185 5.86592594856
473 27 2 24.8996293242 10.9433418119 5.09411260406
474 27 2 24.5521765818 11.3487172817 4.20619519152
475 27 2 24.0878406532 11.4726090912 3.28832103014
476 27 2 23.5316767403 11.3103399874 2.42936791674
477 27 2 22.9171099201 10.8833155193 1.71284315208
478 27 2 22.2828885387 10.23707298 1.20927207361
479 27 2 21.669552403 9.43713080389 0.969769859478
480 27 2 21.1157376853 8.56301673624 1.02138251662
481 27 2 20.6546553399 7.70101909214 1.36462170954
482 27 2 20.3110640133 6.93632180704 1.97341812348
483 27 2 20.0990133596 6.3452401487 2.79749761271
484 27 2 20.0205634519 5.98826478456 3.76696355464
485 27 2 20.0655970127 5.90454821904 4.79866774007
486 27 2 20.2127415764 6.10833614743 5.80378911026
487 28 1 52.9627547616 23.0030302815 38.0301651734
488 28 1 52.3307784805 18.6363334267 41.3544027732
489 28 2 52.6086826458 23.4196686768 38.1219637165
490 28 2 51.7852988903 24.0277976754 38.2821770846
491 28 2 50.8174060046 24.3661494515 38.4310107121
492 28 2 49.7919452527 24.4037609384 38.5740688595
493 28 2 48.8011050556 24.1370807428 38.7174822069
494 28 2 47.9339182632 23.5902928452 38.8673490588
495 28 2 47.2681470482 22.8131122943 39.0291795001
496 28 2 46.8631950916 21.8762538134 39.2073931664
497 28 2 46.7546930964 20.8649863424 39.4049164063
498 28 2 46.9512511435 19.8713610017 39.6229155522
499 28 2 47.4336739067 18.9858208787 39.8606906124
500 28 2 48.1567102549 18.2889573821 40.1157390736
501 28 2 49.0531777716 17.8441645504 40.3839839982
502 28 2 50.0400862531 17.6918608547 40.6601456259
503 28 2 51.0262020433 17.8458051631 40.9382226105
504 28 2 51.9203637379 18.2918426567 41.2120390258
505 29 1 46.9188848942 47.8797569121 5.37022999423
506 29 1 46.4419788777 44.232489697 1.2485806188
507 29 2 46.9282771127 47.6581325559 5.87834023721
508 29 2 46.7530494987 47.1316605937 6.75331027522
509 29 2 46.3508360067 46.4884954389 7.45901056696
510 29 2 45.7686404276 45.771327755 7.92823208388
511 29 2 45.0698714381 45.0295933381 8.11532020571
512 29 2 44.3285630702 44.3149671763 8.00033601709
513 29 2 43.622626706 43.6766534128 7.59087368634
514 29 2 43.0267496644 43.1569005197 6.92136827742
515 29 2 42.6055876511 42.7871504625 6.04995708578
516 29 2 42.4078715639 42.5851728492 5.05318057936
517 29 2 42.4619658016 42.5534452779 4.01900593944
518 29 2 42.7732829251 42.6789275107 3.03880908723
519 29 2 43.3237903165 42.9342500558 2.19904601286
520 29 2 44.0736538046 43.2802088242 1.57337254294
521 29 2 44.9648684426 43.6693384775 1.21593080886
522 29 2 45.9265455041 44.0502387663 1.15641433621
523 30 1 15.1463384771 23.1809307144 13.1065287632
524 30 1 12.4142104886 19.9161410227 16.6271275737
525 30 2 15.0860244437 23.7245344021 13.1972967978
526 30 2 14.7441629415 24.6872870594 13.36959899
527 30 2 14.1328447906 25.5046050247 13.5477322913
528 30 2 13.3077894793 26.1027626437 13.7346579648
529 30 2 12.3441980669 26.4280101414 13.9325358726
530 30 2 11.3298988081 26.4514727714 14.1425276096
531 30 2 10.357341842 26.1717826712 14.3646906278
532 30 2 9.51517260951 25.6152035392 14.5979729995
533 30 2 8.88015205811 24.8332367693 14.8403092973
534 30 2 8.51016008659 23.897927236 15.088808853
535 30 2 8.43891994707 22.895296597 15.3400192337
536 30 2 8.67292446066 21.9175026486 15.5902409222
537 30 2 9.19084421421 21.0544393895 15.8358645178
538 30 2 9.94547167928 20.3855434223 16.0736997238
539 30 2 10.8680240522 19.9725535201 16.3012661343
540 30 2 11.8744126227 19.8538833023 16.5170193167
541 31 1 14.6360060367 3.8136138069 8.0581850195
542 31 1 11.4789728395 -0.166255752905 10.2288463796
543 31 2 14.5988314271 4.30543531448 8.31138699645
544 31 2 14.2980869759 5.19044185871 8.75833912246
545 31 2 13.7206777578 5.95586103782 9.15099939075
546 31 2 12.917863124 6.52672284032 9.47202194032
547 31 2 11.9614475268 6.84579063962 9.71059049677
548 31 2 10.937235736 6.87877815949 9.86340424681
549 31 2 9.93721196298 6.61747457658 9.93497869852
550 31 2 9.05115574613 6.08049291498 9.9372341049
551 31 2 8.35845878563 5.31157351883 9.88840896468
552 31 2 7.92088860229 4.37559723684 9.81139763186
553 31 2 7.77695859303 3.35267170639 9.73166355657
554 31 2 7.93841763777 2.33082975644 9.67491835963
555 31 2 8.38917922037 1.39800545049 9.66477828706
556 31 2 9.08678767161 0.63401913173 9.72061165235
557 31 2 9.96628788995 0.103302012051 9.85577346646
558 31 2 10.9461458254 -0.150976560659 10.0763881643
559 32 1 22.3621533126 13.2140880659 48.203850114
560 32 1 21.9831294152 8.52626117359 45.3058144043
561 32 2 21.8928536363 13.5075476142 48.2358015673
562 32 2 21.0139789137 14.0279380354 48.0619538099
563 32 2 20.1921186311 14.4585569902 47.6009082559
564 32 2 19.4890136672 14.7462719151 46.8964130161
565 32 2 18.955580671 14.8509755673 46.0144059896
566 32 2 18.6272711449 14.7492416922 45.0370048002
567 32 2 18.5208401354 14.4364602641 44.055021995
568 32 2 18.6328190553 13.9272576777 43.159687723
569 32 2 18.939831836 13.2541635913 42.4343343509
570 32 2 19.4007255938 12.4646459353 41.9468009407
571 32 2 19.9603216052 11.6167843373 41.7432499007
572 32 2 20.5544447 10.7739763194 41.8439594049
573 32 2 21.1157726569 9.99915878317 42.2414750922
574 32 2 21.5799724435 9.34907147976 42.901289511
575 32 2 21.8915640006 8.86908533278 43.7649873814
576 32 2 22.0089771014 8.58906700013 44.755569992
577 33 1 42.0105812711 32.3325240764 51.7896401125
578 33 1 45.4124158849 35.3520003975 54.9246480978
579 33 2 42.2220078111 31.8519752106 51.6114458541
580 33 2 42.7973031141 31.0891532725 51.2107115078
581 33 2 43.5684098357 30.5579080961 50.7672895894
582 33 2 44.4751513378 30.3009355857 50.3369002443
583 33 2 45.4449882348 30.3359324251 49.9740757336
584 33 2 46.3996301645 30.6539830724 49.7271899645
585 33 2 47.2621717452 31.2203723876 49.6340493375
586 33 2 47.964102296 31.9777498247 49.7184467947
587 33 2 48.451550402 32.8513567811 49.987993156
588 33 2 48.69019415 33.755840644 50.4334234138
589 33 2 48.6683894788 34.6030344531 51.0294412132
590 33 2 48.3982315048 35.3099930836 51.7370245475
591 33 2 47.914452084 35.8065534721 52.5069825098
592 33 2 47.2712540962 36.0417297928 53.2844389124
593 33 2 46.5373709977 35.9883606791 54.0138341048
594 33 2 45.7898019502 35.6455849094 54.6439890874