LAMMPS input file for bananas

648 atoms

2 atom types

0 33.7373066121 xlo xhi
0 33.7373066121 ylo yhi
0 33.7373066121 zlo zhi

Masses

 1 1
 2 1

Atoms

1 1 1 31.7707954268 8.21396979934 33.2102615617
2 1 1 32.9818150663 11.710511617 29.1305236195
3 1 2 31.3346854886 7.88473188952 33.1164997776
4 1 2 30.4136234812 7.47171350932 32.8846401927
5 1 2 29.4304986603 7.35018711063 32.5823238151
6 1 2 28.477050291 7.52720978878 32.2185966515
7 1 2 27.6423128331 7.98262793766 31.8081018803
8 1 2 27.0045010608 8.67091411269 31.369745227
9 1 2 26.6238813222 9.52531654526 30.9249718366
10 1 2 26.5372786747 10.4639431088 30.4958116955
11 1 2 26.754720534 11.3972252247 30.1028717496
12 1 2 27.2585227432 12.2360814241 29.7634577224
13 1 2 28.0049013631 12.900036513 29.4899968168
14 1 2 28.9279632776 13.3245563344 29.2889050609
15 1 2 29.9457118997 13.4669296145 29.1600025309
16 1 2 30.9675205984 13.3101608022 29.09652975
17 1 2 31.9023926943 12.8645190973 29.0857637684
18 1 2 32.6672551833 12.1666024831 29.1101777731
19 2 1 33.1941343546 17.437742638 24.6272806819
20 2 1 28.8953331722 14.1767116797 23.5215590127
21 2 2 33.3011598454 17.5115815964 25.1662371775
22 2 2 33.271626527 17.7001729312 26.1842054298
23 2 2 32.9442081408 17.9246059705 27.1408272371
24 2 2 32.3452104448 18.1470657444 27.9559417569
25 2 2 31.5256917892 18.3299171327 28.5622855654
26 2 2 30.5568094978 18.4391350477 28.9116232579
27 2 2 29.5233343655 18.4474055882 28.9791437753
28 2 2 28.5159243821 18.336615514 28.7657217617
29 2 2 27.6228618776 18.0995031437 28.2978378466
30 2 2 26.9220071934 17.740320207 27.6251651174
31 2 2 26.4737022456 17.2744443288 26.8160417578
32 2 2 26.3152707738 16.7269774642 25.9512424909
33 2 2 26.4576165372 16.1304580274 25.116616517
34 2 2 26.8842295124 15.521895238 24.3952629478
35 2 2 27.5526906686 14.9393959848 23.8599568917
36 2 2 28.3985381715 14.4186916439 23.566516502
37 3 1 21.7457688841 6.31542973017 17.6019266809
38 3 1 24.2357144323 4.63406917744 22.2181841245
39 3 2 21.5022055111 6.81248684561 17.6334204728
40 3 2 20.9504159149 7.65146687332 17.887071859
41 3 2 20.3280214961 8.31524371052 18.3817674917
42 3 2 19.7041908479 8.75301852287 19.0831139161
43 3 2 19.1482234656 8.93459101108 19.9378828747
44 3 2 18.7232335734 8.85311196117 20.8788626975
45 3 2 18.4803976949 8.52570750336 21.8309841857
46 3 2 18.4542902646 7.99191818268 22.7181626538
47 3 2 18.6597324047 7.31009510945 23.4702325275
48 3 2 19.0904410816 6.55208165556 24.0293424545
49 3 2 19.7196017612 5.79666542377 24.3552280588
50 3 2 20.5023123701 5.12239729782 24.4288817621
51 3 2 21.3796758117 4.60043206797 24.2542851949
52 3 2 22.2841680325 4.28804315972 23.8580462976
53 3 2 23.1457923766 4.22340255372 23.2869741894
54 3 2 23.8984593016 4.42210167146 22.6038128382
55 4 1 31.1376321411 3.17543883982 22.659879637
56 4 1 25.9918371053 1.65948473503 23.9086035971
57 4 2 31.2566722525 3.70790253575 22.7583307215
58 4 2 31.2810551852 4.74141249516 22.8212664622
59 4 2 31.0390502156 5.74485089831 22.736159254
60 4 2 30.543313251 6.62984739409 22.5270556066
61 4 2 29.8296261302 7.31882679924 22.2293034547
62 4 2 28.9536353546 7.75207954437 21.8863304366
63 4 2 27.9857802911 7.89320379188 21.5456857627
64 4 2 27.0048731064 7.73242321384 21.2547064304
65 4 2 26.0909155786 7.2874780373 21.056202782
66 4 2 25.3178074838 6.6020081442 20.9845566352
67 4 2 24.7466111375 5.74157559532 21.062587616
68 4 2 24.4199859842 4.78768909795 21.2994733067
69 4 2 24.3583004806 3.83037504607 21.6899127716
70 4 2 24.5577756508 2.95997223174 22.2146097016
71 4 2 24.9908295143 2.2588980836 22.8420311399
72 4 2 25.6085909938 1.79413688329 23.5312814952
73 5 1 7.45133405608 26.6370824242 14.0038077177
74 5 1 2.18326159678 25.171100419 14.6633107511
75 5 2 7.63479204095 27.0218852407 14.3582801593
76 5 2 7.78354128647 27.8560259395 14.9539153057
77 5 2 7.66173972322 28.7681812948 15.4291365784
78 5 2 7.27180190206 29.6700116513 15.7567778075
79 5 2 6.64058115539 30.4741184063 15.9231237318
80 5 2 5.81692210002 31.1020097938 15.9291600517
81 5 2 4.86720878521 31.49125487 15.7904835887
82 5 2 3.86931424172 31.6011736664 15.5358807424
83 5 2 2.90550288899 31.4165448899 15.2047038074
84 5 2 2.05493269728 30.9489932389 14.8432842814
85 5 2 1.38644048143 30.2359298925 14.5007100671
86 5 2 0.952267897113 29.3371427371 14.2243514461
87 5 2 0.78329997212 28.3293471112 14.0555436027
88 5 2 0.886250147811 27.2991937282 14.0258192052
89 5 2 1.24304839497 26.3353710574 14.1540344194
90 5 2 1.81248817307 25.5205219786 14.4446502984
91 6 1 5.92975496535 18.0376507205 18.0564102717
92 6 1 7.66224945769 15.1861425952 22.438647049
93 6 2 5.84379995231 18.5779798972 18.1460588536
94 6 2 5.55814583559 19.5096190726 18.496983979
95 6 2 5.14553775237 20.2693706069 19.0672737709
96 6 2 4.6579991976 20.7922779342 19.8166550862
97 6 2 4.15438306494 21.0349712141 20.6885318171
98 6 2 3.69500760908 20.9796201955 21.6151432386
99 6 2 3.33615885031 20.6355593216 22.5237399338
100 6 2 3.12496048972 20.0384369596 23.3432144046
101 6 2 3.09507890691 19.2469662962 24.0105820328
102 6 2 3.26365470031 18.3375740335 24.4767216959
103 6 2 3.62974043915 17.3974346187 24.7108528208
104 6 2 4.17438701529 16.5165248912 24.7033408219
105 6 2 4.86237072449 15.7794233104 24.4665752278
106 6 2 5.64540366558 15.2576012092 24.0338404604
107 6 2 6.46653485156 15.0029086719 23.456282188
108 6 2 7.26534090163 15.0428487544 22.7982457489
109 7 1 21.8415664468 23.9097161614 1.57802364017
110 7 1 20.1025949973 19.1728671276 -0.629888146212
111 7 2 21.9582436322 23.8882160534 2.11959997958
112 7 2 21.9635058838 23.7485931771 3.14584363106
113 7 2 21.6996160674 23.476831682 4.10979701462
114 7 2 21.1987176917 23.0805100588 4.92510570425
115 7 2 20.5145559706 22.5785596001 5.51896321864
116 7 2 19.7175793152 21.9995389424 5.83874683283
117 7 2 18.8885184448 21.3790311426 5.85681377878
118 7 2 18.1110283345 20.7564005261 5.57302069416
119 7 2 17.4640636385 20.1712048984 5.01473668883
120 7 2 17.0146825143 19.6595901226 4.23434883816
121 7 2 16.8119347314 19.2509956716 3.30448746022
122 7 2 16.8823911214 18.9654714218 2.31140636031
123 7 2 17.2277218283 18.8118502448 1.34712138794
124 7 2 17.8245440869 18.7869429514 0.501023823018
125 7 2 18.6265534015 18.8758289642 -0.148267026417
126 7 2 19.5687438827 19.0532162264 -0.540069435128
127 8 1 7.11077866821 7.7922095117 27.3333222418
128 8 1 3.20999177314 4.40993597478 29.2518430907
129 8 2 7.19723989954 8.24805685462 27.6368159107
130 8 2 7.12500633288 9.12149718162 28.1887059162
131 8 2 6.75421127097 9.94744210292 28.6917211049
132 8 2 6.11682869687 10.6438295057 29.1177332063
133 8 2 5.26913021763 11.1404055568 29.4456322531
134 8 2 4.28655629312 11.3851278577 29.6632506103
135 8 2 3.2568403553 11.3489087525 29.7684719718
136 8 2 2.27201250746 11.0282664684 29.7694242469
137 8 2 1.42001161121 10.4456424552 29.6837387572
138 8 2 0.77667026224 9.6473560012 29.5369432628
139 8 2 0.398803169066 8.69938254759 29.3601352815
140 8 2 0.319028881921 7.68134047927 29.1871477637
141 8 2 0.542796835521 6.67923445497 29.0514654507
142 8 2 1.04789067046 5.77761667227 28.9831729699
143 8 2 1.78645310204 5.05188051451 29.006212828
144 8 2 2.68934778367 4.56138896075 29.1362032148
145 9 1 16.5616457981 21.4231541502 20.0301780796
146 9 1 13.6961944487 19.2563915327 24.2052185884
147 9 2 16.4438495105 21.9521481263 19.9132586223
148 9 2 16.0015786691 22.8631338023 19.6960033066
149 9 2 15.3048224944 23.6071184556 19.5123842999
150 9 2 14.4145868097 24.1236094596 19.3965579656
151 9 2 13.4095117694 24.3728486737 19.37650183
152 9 2 12.3787043476 24.339436126 19.4714646222
153 9 2 11.4136168487 24.0337336145 19.6902118848
154 9 2 10.5997116565 23.4909203007 20.0302270545
155 9 2 10.0086719242 22.7677863701 20.4779408296
156 9 2 9.69186814647 21.9375569961 21.0099679192
157 9 2 9.67567609062 21.0832183675 21.5952384515
158 9 2 9.95907282673 20.2899540662 22.1978297802
159 9 2 10.5137299604 19.6373811682 22.780240587
160 9 2 11.2865955719 19.1922936925 23.30680887
161 9 2 12.2047295347 19.0025747844 23.7469622902
162 9 2 13.1819515081 19.0928324952 24.0780046312
163 10 1 6.1247452469 19.2394022983 5.68425951333
164 10 1 2.36282614571 15.5891025421 7.37538673891
165 10 2 6.04812543688 19.4361223748 5.17160820117
166 10 2 5.88595767535 19.5758342471 4.15825708683
167 10 2 5.69614781174 19.4106783477 3.15357105842
168 10 2 5.47702406013 18.9574088202 2.24845792293
169 10 2 5.22958639447 18.2590393901 1.5247501008
170 10 2 4.95741540791 17.3809229585 1.0477461619
171 10 2 4.66634596618 16.4047951334 0.860259308581
172 10 2 4.36393539965 15.4213245892 0.9787152458
173 10 2 4.05877470445 14.521849239 1.39165509073
174 10 2 3.75970553209 13.7900514097 2.06077977137
175 10 2 3.47501433353 13.2943307718 2.92444072437
176 10 2 3.211677106 13.0815701785 3.90325873893
177 10 2 2.97472357869 13.1728626148 4.90735882759
178 10 2 2.76677878737 13.5615887167 5.84456171521
179 10 2 2.58782382044 14.2140200808 6.62878534783
180 10 2 2.43519754255 15.0723933772 7.18789068178
181 11 1 24.0444862188 5.02179269561 27.5981173665
182 11 1 19.0366690372 7.22673223455 26.9683208656
183 11 2 24.0496700948 4.49293807965 27.7644503886
184 11 2 23.9116179252 3.58355601773 28.2405429584
185 11 2 23.5808194096 2.84287314006 28.8844835518
186 11 2 23.0726783297 2.33118391613 29.627898007
187 11 2 22.4187620261 2.08791161388 30.3933458014
188 11 2 21.6639242518 2.12801513915 31.1013782249
189 11 2 20.8622170596 2.44062563397 31.6777795847
190 11 2 20.0719643285 2.99003709841 32.0603314569
191 11 2 19.3504459422 3.71896074769 32.2044834695
192 11 2 18.7486771197 4.55374649216 32.0874137631
193 11 2 18.3067587284 5.41109563798 31.7101090471
194 11 2 18.0502223651 6.20565299196 31.0972746676
195 11 2 17.9877033254 6.85778640226 30.2950828851
196 11 2 18.1101535563 7.300844683 29.3669645888
197 11 2 18.3916663238 7.48723241295 28.3878280065
198 11 2 18.7918374343 7.39274793181 27.4372313327
199 12 1 26.501729607 25.1396881147 2.85412119238
200 12 1 23.6227632587 29.8283271719 3.10878073559
201 12 2 26.256959946 24.7001530419 3.08709647977
202 12 2 25.7722724576 24.0248252887 3.70492229294
203 12 2 25.2755796079 23.5948495415 4.50561907756
204 12 2 24.7939261693 23.4521466308 5.41134757741
205 12 2 24.352986175 23.6124544378 6.33469561557
206 12 2 23.974722907 24.0638934942 7.18664511497
207 12 2 23.6753870932 24.7680497143 7.88468548585
208 12 2 23.4640357654 25.6634755756 8.3603339003
209 12 2 23.3417067726 26.6712906393 8.56537703248
210 12 2 23.3013241884 27.7023709611 8.47626537276
211 12 2 23.3283432329 28.6654721282 8.096259604
212 12 2 23.4020759301 29.4755455614 7.45513341272
213 12 2 23.4975766747 30.0614901106 6.60645982167
214 12 2 23.5879158531 30.3726324366 5.62272837615
215 12 2 23.6466342933 30.3833455388 4.58873821888
216 12 2 23.6501548364 30.0953844805 3.59386922962
217 13 1 25.9999477722 28.1546633839 0.70318850215
218 13 1 22.4236591842 26.0809579466 4.34276823363
219 13 2 26.0201902516 28.7083162336 0.682223873148
220 13 2 25.8242191397 29.7236978446 0.624832423918
221 13 2 25.3395486775 30.6369812268 0.563953215573
222 13 2 24.608501397 31.3695346979 0.523535932632
223 13 2 23.6958553881 31.859198868 0.525665295406
224 13 2 22.68294022 32.0659520417 0.588548189152
225 13 2 21.6602243078 31.9755579213 0.724854231311
226 13 2 20.7190693377 31.6008631476 0.940561022744
227 13 2 19.9434032749 30.9806264168 1.2344093304
228 13 2 19.4020709056 30.175985891 1.59801785775
229 13 2 19.142559106 29.2648868739 2.01664714256
230 13 2 19.1866687401 28.3349776309 2.47054295775
231 13 2 19.5285276596 27.4756208504 2.9367367738
232 13 2 20.1351259102 26.7697488477 3.39113918272
233 13 2 20.9493243626 26.2863048527 3.81073548245
234 13 2 21.8950625528 26.0739593076 4.17568330914
235 14 1 7.6656598865 11.7109355978 30.2650494625
236 14 1 12.9995920404 12.7610570207 29.3801496369
237 14 2 7.31251417914 12.0421297599 29.9949026728
238 14 2 6.78582508253 12.8321946855 29.5812672296
239 14 2 6.48116685818 13.7826392058 29.3046142858
240 14 2 6.43511087309 14.808971176 29.1733900341
241 14 2 6.66065867315 15.8197818308 29.1827858392
242 14 2 7.14605698138 16.7250770662 29.3151765117
243 14 2 7.85586892853 17.4444797854 29.5417267232
244 14 2 8.73420388079 17.9145557199 29.8250191491
245 14 2 9.70981148782 18.0945950282 30.1224648007
246 14 2 10.7025756637 17.9703227187 30.39018472
247 14 2 11.630816619 17.5551997175 30.5870092458
248 14 2 12.4187354132 16.889195997 30.6782303456
249 14 2 13.0033225091 16.0351475873 30.6387650155
250 14 2 13.3401006593 15.0730295024 30.4554414236
251 14 2 13.4071787032 14.0926665665 30.128199432
252 14 2 13.2072467955 13.1855464968 29.6700960786
253 15 1 30.7317811572 12.7177966005 28.2079554763
254 15 1 27.3303430898 9.42372991236 31.0214903801
255 15 2 30.7190676333 13.2517170271 28.3567778403
256 15 2 30.4628411233 14.2226849384 28.610288317
257 15 2 29.9244185154 15.0803264052 28.8276600743
258 15 2 29.1509858203 15.7451404331 29.0079998801
259 15 2 28.2111486068 16.1552009268 29.1537897107
260 15 2 27.1886790747 16.271800829 29.2706605359
261 15 2 26.174880793 16.0829800034 29.3668790945
262 15 2 25.2602670059 15.6046153188 29.4525944378
263 15 2 24.5263109708 14.8789735819 29.5389129131
264 15 2 24.0380202294 13.9708592072 29.6368858966
265 15 2 23.8380116167 12.9617077391 29.7565025356
266 15 2 23.9426270277 11.9421635603 29.905779307
267 15 2 24.3404439663 11.003818278 30.0900293697
268 15 2 24.9933166275 10.2308627766 30.3113783069
269 15 2 25.8398526259 9.69241379566 30.5685703939
270 15 2 26.8010084903 9.4362144136 30.8570830486
271 16 1 30.4899014551 21.6014960192 14.1858574914
272 16 1 29.2668557885 17.7092562904 17.8860283143
273 16 2 30.2810540704 22.1034762841 14.2943901373
274 16 2 29.689773075 22.9222101939 14.5240852407
275 16 2 28.8870110135 23.521839579 14.786222503
276 16 2 27.9478597462 23.8486578504 15.0758480987
277 16 2 26.9598420743 23.8738232816 15.3855028292
278 16 2 26.0149346367 23.5959877344 15.7059019774
279 16 2 25.2011848701 23.0414195325 16.0267815464
280 16 2 24.5946860887 22.2616092834 16.3378337522
281 16 2 24.2526421003 21.3285768633 16.6296465074
282 16 2 24.2081534715 20.3283072985 16.8945612688
283 16 2 24.467200638 19.3529138203 17.1273710608
284 16 2 25.0080988286 18.492242375 17.3257950559
285 16 2 25.7834744839 17.8256827824 17.4906864558
286 16 2 26.7245830311 17.4149328977 17.6259547288
287 16 2 27.7475744806 17.2983752749 17.7382092878
288 16 2 28.7611357775 17.4875788605 17.8361570881
289 17 1 10.1539168721 14.4856564488 13.0337781761
290 17 1 11.3937314964 13.0554168734 7.86136003939
291 17 2 9.61912834677 14.4340225087 13.1705843204
292 17 2 8.58530402161 14.4591755088 13.2277932565
293 17 2 7.58539368419 14.6262984814 13.0157850014
294 17 2 6.70578390813 14.9040856446 12.544808139
295 17 2 6.02189669569 15.2511449342 11.8487144662
296 17 2 5.59131527933 15.6197706064 10.9818736338
297 17 2 5.4485358049 15.9602912897 10.0142177254
298 17 2 5.60182324444 16.2255971896 9.02486742777
299 17 2 6.03245810065 16.3754338234 8.09492072237
300 17 2 6.69644256072 16.3800709404 7.30006136059
301 17 2 7.52851059533 16.2230122302 6.70366080858
302 17 2 8.44807650971 15.9024988487 6.35100237264
303 17 2 9.36657977728 15.4316697241 6.26515393633
304 17 2 10.1955567244 14.8373640343 6.44486548101
305 17 2 10.8547033878 14.1576749994 6.86468301647
306 17 2 11.27919467 13.438477946 7.47726853765
307 18 1 13.7379559747 4.54222000365 28.7379518665
308 18 1 8.47729789829 3.79162274627 30.1866462051
309 18 2 13.8761482126 5.06498321953 28.6154680832
310 18 2 13.9440228767 6.03120042844 28.2487043905
311 18 2 13.7515134977 6.91466809275 27.7436070769
312 18 2 13.3061742172 7.64461581265 27.1591864044
313 18 2 12.6386028888 8.16426547873 26.5616824152
314 18 2 11.7996522937 8.43600620735 26.0185276062
315 18 2 10.8557952582 8.44482231485 25.5922009193
316 18 2 9.88306611159 8.19966189411 25.3345332138
317 18 2 8.96013067785 7.7326212573 25.2819832393
318 18 2 8.16111642561 7.09601957705 25.4523146707
319 18 2 7.54885625736 6.35763035254 25.8429770704
320 18 2 7.16916172126 5.59450431977 26.4313383442
321 18 2 7.04664760259 4.88594680522 27.1767475006
322 18 2 7.18248845483 4.30628958905 28.0242397104
323 18 2 7.55431154717 3.91811607296 28.909545974
324 18 2 8.11823598555 3.76655723226 29.7649508002
325 19 1 11.2630435705 9.85736421883 1.93879982042
326 19 1 8.30084429227 5.54606872869 3.66354373169
327 19 2 11.2000078549 10.3206580479 2.23673618627
328 19 2 10.853095325 11.1433102081 2.76170608163
329 19 2 10.2361582067 11.8385818695 3.21852571788
330 19 2 9.40423828829 12.3361491291 3.58326444983
331 19 2 8.43197156652 12.5837074849 3.84038417546
332 19 2 7.40678568703 12.5517390323 3.98415552728
333 19 2 6.42093151382 12.2362028188 4.01918006498
334 19 2 5.56307509556 11.6589031492 3.95997087476
335 19 2 4.91021636311 10.8655022726 3.82962980103
336 19 2 4.52067111375 9.92135858143 3.65774187173
337 19 2 4.42875592609 8.9055696423 3.4776788258
338 19 2 4.6416604392 7.90376299489 3.32355750804
339 19 2 5.13879206629 7.00029178886 3.22713035256
340 19 2 5.87365286783 6.2705465726 3.21489136616
341 19 2 6.77807751993 5.77408396159 3.30566138122
342 19 2 7.76844611627 5.54919846129 3.50887266587
343 20 1 28.5570806855 6.71936095141 6.48955184488
344 20 1 28.1614941221 1.38015816514 7.78301997548
345 20 2 28.1007066248 6.94218485069 6.26717158884
346 20 2 27.2588540602 7.17160520582 5.70918518108
347 20 2 26.4868482522 7.13336721155 5.01980635985
348 20 2 25.8413111122 6.82242191736 4.27194735169
349 20 2 25.3673378001 6.25857577342 3.54385045125
350 20 2 25.0943866088 5.48468540842 2.91195677254
351 20 2 25.0335940431 4.56275154173 2.4439391655
352 20 2 25.1767598039 3.56826804289 2.19253429968
353 20 2 25.4970941889 2.58334118301 2.19073607838
354 20 2 25.9516597902 1.68920621108 2.44878847061
355 20 2 26.4852849451 0.958823317962 2.95325184348
356 20 2 27.0355922545 0.450227815262 3.66822789267
357 20 2 27.5386838554 0.201240614534 4.53863152669
358 20 2 27.9349652727 0.226021110512 5.49521149533
359 20 2 28.1745770474 0.513776649354 6.46086216631
360 20 2 28.2219390843 1.02974620505 7.35765117502
361 21 1 15.3988715937 19.8158670651 28.7860367592
362 21 1 16.4101155377 18.478822344 34.0325910596
363 21 2 15.0255741313 20.2193368082 28.7136356362
364 21 2 14.1981237195 20.84216159 28.7242835642
365 21 2 13.2721176507 21.2553376806 28.9352256172
366 21 2 12.3361773993 21.432969684 29.341625652
367 21 2 11.4798298724 21.3706304325 29.9208328705
368 21 2 10.785347646 21.0857644931 30.6344462846
369 21 2 10.3202503836 20.6160982148 31.431814703
370 21 2 10.1311508821 20.0162012306 32.25465324
371 21 2 10.2395066345 19.3525128091 33.042355583
372 21 2 10.6396641271 18.6972863715 33.7375178429
373 21 2 11.299374118 18.1220040867 34.2911705245
374 21 2 12.1627309347 17.6908617627 34.6672417605
375 21 2 13.1552678927 17.4549178378 34.845845015
376 21 2 14.1907444232 17.447439755 34.8250916045
377 21 2 15.17900631 17.6808718618 34.6212628388
378 21 2 16.0342026278 18.1457011938 34.2673260913
379 22 1 13.1319929138 31.2658365672 2.20596781858
380 22 1 11.5411354029 26.5972424173 4.65750528942
381 22 2 13.031487195 31.7289572144 2.49371530901
382 22 2 12.62714417 32.5040257043 3.04911950882
383 22 2 11.9778491761 33.0954074389 3.59810213694
384 22 2 11.1465518729 33.4435509183 4.10843456057
385 22 2 10.2127901827 33.5110741417 4.55141084805
386 22 2 9.26544095405 33.286171721 4.90446411774
387 22 2 8.39461944661 32.7836908603 5.15322335455
388 22 2 7.68346594283 32.0437781356 5.29282322942
389 22 2 7.20056808139 31.1282204095 5.32834754076
390 22 2 6.99370956408 30.1148133822 5.27436586099
391 22 2 7.08551499904 29.0902710466 5.15360562
392 22 2 7.47138782284 28.1423223029 4.99488065568
393 22 2 8.11992924571 27.3517150705 4.83046503015
394 22 2 8.97580003595 26.7848566686 4.69315147031
395 22 2 9.9647643115 26.4877612447 4.61326253556
396 22 2 11.0004556316 26.4818559004 4.61588692444
397 23 1 4.15466783624 31.6616843479 27.5224027022
398 23 1 8.62349614546 29.6861214121 24.9800888827
399 23 2 4.0270175107 31.4131249414 28.0012600583
400 23 2 3.81023229921 30.7521091991 28.7685674488
401 23 2 3.65349509316 29.8868252502 29.3157560882
402 23 2 3.58835869051 28.8931412484 29.6004447335
403 23 2 3.63802710402 27.8586281318 29.6041772161
404 23 2 3.81524067459 26.8745781325 29.3341045958
405 23 2 4.12111487647 26.0276841152 28.82233339
406 23 2 4.54503864953 25.3921381173 28.122999285
407 23 2 5.06564152455 25.0228692535 27.3073330397
408 23 2 5.65274139503 24.9505373029 26.4571682897
409 23 2 6.27009540923 25.1787382812 25.657482973
410 23 2 6.87870325763 25.6836766879 24.9886541732
411 23 2 7.44036178379 26.4163343033 24.5191322997
412 23 2 7.92114694007 27.3069378631 24.2992023019
413 23 2 8.29450573202 28.2713184129 24.356400541
414 23 2 8.54367634181 29.2185827319 24.6930050394
415 24 1 24.4825845295 22.8421937048 26.930681856
416 24 1 21.3198045758 19.0401150917 29.3550696367
417 24 2 24.5462225548 23.3127874261 27.216815571
418 24 2 24.4304352187 24.1834690463 27.7656371086
419 24 2 24.0210073604 24.9678417304 28.3039925603
420 24 2 23.3565333957 25.5879012248 28.8006804348
421 24 2 22.4988534442 25.9806192968 29.2282969543
422 24 2 21.5274170268 26.1036883256 29.565733722
423 24 2 20.5320417862 25.9393773518 29.8001016068
424 24 2 19.6047272247 25.4961481332 29.9279054997
425 24 2 18.8312695806 24.8078839131 29.9553628691
426 24 2 18.2834420886 23.9308011954 29.8978370808
427 24 2 18.0124533422 22.9383259953 29.778437133
428 24 2 18.0442799814 21.9144015616 29.6259114292
429 24 2 18.3772990997 20.9458375254 29.4720275584
430 24 2 18.9824361614 20.1143977969 29.3486768974
431 24 2 19.8058149456 19.4893483458 29.28496793
432 24 2 20.7736679949 19.1211440832 29.3045732088
433 25 1 12.2092085724 23.1730732793 24.6583851081
434 25 1 11.5476974427 25.9505448651 29.3684476918
435 25 2 11.7463511947 23.0972624456 24.3627560889
436 25 2 10.7953851954 22.8788159764 24.0154189624
437 25 2 9.80141077498 22.5924153889 23.9635747144
438 25 2 8.84608480864 22.280807494 24.2144752704
439 25 2 8.00754163008 21.9890365763 24.7477794428
440 25 2 7.35327162252 21.7603389153 25.5174068905
441 25 2 6.93396993307 21.6322020962 26.455738026
442 25 2 6.77891595759 21.6329482725 27.4797770775
443 25 2 6.89330472454 21.7791527965 28.4987165842
444 25 2 7.25777340373 22.0741334893 29.4222138738
445 25 2 7.83016609552 22.5076482444 30.1686251777
446 25 2 8.54937605212 23.056828525 30.6724469009
447 25 2 9.34091513859 23.6882636749 30.8902858255
448 25 2 10.1237029157 24.3610460706 30.8048141047
449 25 2 10.8174565662 25.0304995705 30.4263485777
450 25 2 11.3500081229 25.6522514389 29.7919104604
451 26 1 9.74485735658 19.2359825477 -0.187334274374
452 26 1 15.2320072922 18.9945921068 -0.599100185649
453 26 2 9.55191499958 19.6141776878 0.169208057597
454 26 2 9.34558404066 20.2212370991 0.982598909346
455 26 2 9.36565687311 20.6629289094 1.91919044102
456 26 2 9.62239901152 20.9134529655 2.89079707066
457 26 2 10.1045051859 20.9644327442 3.80604183023
458 26 2 10.7801297394 20.8256788153 4.57868474969
459 26 2 11.5997891418 20.5242946748 5.13548303906
460 26 2 12.5008720738 20.102206448 5.42286666652
461 26 2 13.4133460199 19.6123416096 5.41182089958
462 26 2 14.2661402515 19.1138050082 5.10053079893
463 26 2 14.9936234368 18.6664918638 4.51454663783
464 26 2 15.5415854868 18.3256287298 3.70445516978
465 26 2 15.8721784333 18.1367399706 2.74126899283
466 26 2 15.9673660114 18.1314985286 1.70995423808
467 26 2 15.8305675415 18.3248391524 0.701686489437
468 26 2 15.4863462821 18.7135971964 -0.19445924581
469 27 1 14.7802547584 27.5304057199 13.0494468768
470 27 1 19.0259393086 25.3003640156 15.7582679532
471 27 2 14.3352884231 27.642663294 13.3605480649
472 27 2 13.5317958225 27.6302082386 14.0139566533
473 27 2 12.8355398189 27.3361722618 14.7221011956
474 27 2 12.3180337323 26.7935561028 15.4365614293
475 27 2 12.0344990533 26.0580168805 16.1083414597
476 27 2 12.0188323826 25.2027953278 16.6923354
477 27 2 12.2805159888 24.3120404018 17.1514384639
478 27 2 12.8037535641 23.4731396829 17.4599288118
479 27 2 13.5489099497 22.7687545961 17.605811921
480 27 2 14.4561236087 22.2692863885 17.5919138034
481 27 2 15.4507625948 22.026459539 17.4356234344
482 27 2 16.4502267427 22.0686074259 17.167307867
483 27 2 17.3714761066 22.3980899343 16.8275444826
484 27 2 18.1385994818 22.9910783686 16.4634226416
485 27 2 18.6897331911 23.7997272745 16.1242518107
486 27 2 18.9826995343 24.7565352244 15.8570673428
487 28 1 1.20940213581 4.5471049403 3.00667464068
488 28 1 4.02690749687 7.33986480729 6.82751104031
489 28 2 1.50533414497 4.17576667313 2.72047036236
490 28 2 2.20618782532 3.66254895537 2.15645798306
491 28 2 3.05215643851 3.41836084777 1.61110713755
492 28 2 3.97752891077 3.45837389438 1.14766025303
493 28 2 4.90935705099 3.77185665256 0.82189477219
494 28 2 5.77410427818 4.3231527904 0.677039421746
495 28 2 6.50434797667 5.0549309169 0.739834210357
496 28 2 7.04492460524 5.89340994521 1.01809326018
497 28 2 7.35795747574 6.75508373282 1.49999260321
498 28 2 7.42630895349 7.55433209395 2.15514785489
499 28 2 7.25514243519 8.21122449244 2.93738354247
500 28 2 6.87145174073 8.6588051621 3.78894168271
501 28 2 6.32160081158 8.84919566579 4.64574602613
502 28 2 5.66709795536 8.75795868666 5.44324216777
503 28 2 4.97898978537 8.38632532205 6.12228123865
504 28 2 4.33138580883 7.76108287742 6.63451091965
505 29 1 29.911564286 25.164817651 22.7008576377
506 29 1 27.825768303 20.2428453763 24.0276126911
507 29 2 29.5992130125 25.5995535957 22.845156258
508 29 2 28.8450221004 26.290673346 23.007168079
509 29 2 27.9245388932 26.7648416462 23.0311130009
510 29 2 26.9148936246 26.9732586174 22.9317295579
511 29 2 25.901343039 26.891345792 22.7349968188
512 29 2 24.9694998238 26.5209862729 22.4757665735
513 29 2 24.1975295997 25.8903531017 22.1945868311
514 29 2 23.6490266603 25.0513414787 21.9340061469
515 29 2 23.3672177884 24.0748388714 21.7346956132
516 29 2 23.371022431 23.0442641081 21.6317419681
517 29 2 23.6533283215 22.0479643233 21.6514496801
518 29 2 24.1816397138 21.1711627219 21.8089434758
519 29 2 24.9010391473 20.4881910692 22.1067898251
520 29 2 25.7391927962 20.0557148592 22.5347630248
521 29 2 26.6129432023 19.9075686438 23.0707772016
522 29 2 27.4358885072 20.0516722455 23.6828992877
523 30 1 19.9469870122 15.7082309811 1.4998664727
524 30 1 17.255857261 20.5113462518 1.65651667316
525 30 2 20.2868345141 15.6146933691 1.92780939206
526 30 2 21.001996437 15.6550367224 2.67588299075
527 30 2 21.7553289109 15.9768923143 3.30960014583
528 30 2 22.4681597796 16.5581758397 3.78570925828
529 30 2 23.0655083302 17.3531579154 4.0753236216
530 30 2 23.4829192714 18.296632001 4.16655424701
531 30 2 23.6723373914 19.3098575273 4.06559346335
532 30 2 23.6064874609 20.3077365594 3.79615052866
533 30 2 23.2813601832 21.2065698902 3.39729069395
534 30 2 22.7165776142 21.9316856493 2.91987467336
535 30 2 21.9536047464 22.4242451319 2.42192303879
536 30 2 21.0519702595 22.6466055432 1.96332804254
537 30 2 20.0838408888 22.5857508814 1.60039484918
538 30 2 19.1274439226 22.2544782569 1.38070970582
539 30 2 18.2599373206 21.6902315232 1.33880278191
540 30 2 17.5503772958 20.9516885268 1.49300098108
541 31 1 14.9698241604 7.16291952726 23.4053150263
542 31 1 9.58958588454 7.82466049379 22.4297280669
543 31 2 15.2371787034 6.84089469379 23.0417186752
544 31 2 15.5600680317 6.08996358782 22.4056815482
545 31 2 15.6213030066 5.21004518702 21.8628259902
546 31 2 15.4069904832 4.28634961751 21.4462267724
547 31 2 14.9283515821 3.40807699421 21.1774512664
548 31 2 14.2206989611 2.6602874419 21.0645937258
549 31 2 13.3402183081 2.11614844805 21.1015375508
550 31 2 12.3588474015 1.83026614798 21.2685127741
551 31 2 11.3577194743 1.83370835002 21.5338979579
552 31 2 10.4197684768 2.13117291774 21.8571022715
553 31 2 9.62217021506 2.70055959196 22.1922650665
554 31 2 9.02930830562 3.49498427779 22.4924357612
555 31 2 8.68690605023 4.44705220849 22.7138530639
556 31 2 8.61785907033 5.47500051636 22.8199335145
557 31 2 8.82014852814 6.49015035756 22.7846058164
558 31 2 9.26702512993 7.40498938075 22.594687056
559 32 1 26.908882447 10.4682708114 16.1370461973
560 32 1 24.4404124893 6.04360814455 18.2970580674
561 32 2 26.78333043 10.9502720147 16.3805462645
562 32 2 26.3272764225 11.7771099667 16.8060483379
563 32 2 25.6201909025 12.4379725653 17.1748151534
564 32 2 24.7257211389 12.8675600898 17.4715922953
565 32 2 23.7245931899 13.0216519571 17.6876867125
566 32 2 22.7072542758 12.8811371244 17.8217590316
567 32 2 21.7656291354 12.4537559295 17.8799456306
568 32 2 20.984741716 11.7733946127 17.8752993511
569 32 2 20.4349658238 10.8969968176 17.8265998205
570 32 2 20.1656110337 9.89937356911 17.7566418179
571 32 2 20.2004284598 8.86638476073 17.6901576866
572 32 2 20.5354460042 7.8871136145 17.6515631504
573 32 2 21.1393303862 7.04574735577 17.6627319874
574 32 2 21.9562429564 6.4139041249 17.7410023857
575 32 2 22.9109290067 6.04410547477 17.8975966861
576 32 2 23.9155767206 5.96498939132 18.1365985425
577 33 1 12.7130509574 7.95614101165 16.2377256829
578 33 1 10.5655135437 4.29302481199 19.745758991
579 33 2 12.5669185416 8.48312896667 16.3288835896
580 33 2 12.0762769702 9.37840285764 16.5033937028
581 33 2 11.3430650627 10.086897118 16.6854224173
582 33 2 10.4341247248 10.5447849249 16.8774236921
583 33 2 9.43231430368 10.7110805156 17.0809425554
584 33 2 8.42895661792 10.5713747588 17.2964742864
585 33 2 7.51551550866 10.1391484479 17.5234192735
586 33 2 6.77525953757 9.45454361933 17.7601376653
587 33 2 6.27567262834 8.580704881 18.0040988315
588 33 2 6.06230336974 7.59802421434 18.2521120125
589 33 2 6.15461357401 6.59681379632 18.5006171354
590 33 2 6.54420446613 5.66907466368 18.7460092902
591 33 2 7.19558217457 4.90011144924 18.9849672925
592 33 2 8.04939275433 4.36075744945 19.2147563869
593 33 2 9.02783189208 4.10091865509 19.4334775009