LAMMPS input file for bananas

4320 atoms

2 atom types

0 100.793683992 xlo xhi
0 100.793683992 ylo yhi
0 100.793683992 zlo zhi

Masses

 1 1
 2 1

Atoms

1 1 1 41.0572149389 39.5536542711 10.4019236947
2 1 1 37.3840317476 38.0325333817 14.2375341472
3 1 2 40.9160544145 40.002179156 10.1081878916
4 1 2 40.4496142378 40.7245013347 9.53014443046
5 1 2 39.7510836023 41.2480087286 8.97207188052
6 1 2 38.8758637338 41.5359837943 8.49824643331
7 1 2 37.8954606093 41.5731771308 8.16526538209
8 1 2 36.8909673787 41.367197421 8.01688842984
9 1 2 35.9456729404 40.9478179214 8.08004910935
10 1 2 35.1374703813 40.3642627088 8.36239986366
11 1 2 34.5317572299 39.6807200374 8.85161454631
12 1 2 34.1754746462 38.9704917511 9.51651191671
13 1 2 34.092828861 38.3093120164 10.3098977268
14 1 2 34.2830848419 37.768444355 11.1728663507
15 1 2 34.7206332902 37.4081861653 12.040169875
16 1 2 35.3573248595 37.2723727745 12.8461652718
17 1 2 36.1268588405 37.3843819665 13.5307975849
18 1 2 36.9508262929 37.7450031594 14.0450737791
19 2 1 15.7634065506 57.4278039258 24.0851625758
20 2 1 12.4534906956 55.1965047381 27.9040304747
21 2 2 15.8249942112 57.9775693607 24.1218574613
22 2 2 15.7049665695 59.0038598961 24.1978253061
23 2 2 15.2903983213 59.9485627019 24.2933228844
24 2 2 14.6196174825 60.728171629 24.4186743834
25 2 2 13.7543051618 61.2742283938 24.5814828854
26 2 2 12.7738734925 61.5395623685 24.7859373669
27 2 2 11.7682274291 61.5025900569 25.0324308848
28 2 2 10.8295701503 61.1692823729 25.31752475
29 2 2 10.0439989864 60.5726204078 25.634261955
30 2 2 9.48365787754 59.7695892914 25.9728012865
31 2 2 9.20016164617 58.8359841503 26.3213143257
32 2 2 9.21989144417 57.8595015843 26.6670635767
33 2 2 9.54159018129 56.931746356 26.9975634559
34 2 2 10.1364771056 56.1398818614 27.3017183189
35 2 2 10.9508710919 55.5586854193 27.5708337992
36 2 2 11.9110835334 55.2437325184 27.7994092764
37 3 1 34.6834768632 59.9909100226 68.9337771184
38 3 1 31.7876989033 56.6448590856 72.240800583
39 3 2 34.6333656052 60.5314154541 69.0465792833
40 3 2 34.3094171551 61.4938428259 69.2521053567
41 3 2 33.7126798378 62.3172467536 69.4505003092
42 3 2 32.8970697998 62.9265227207 69.6428881284
43 3 2 31.9364528513 63.2660834022 69.8309403365
44 3 2 30.9179117946 63.3049253002 70.0167236349
45 3 2 29.9338090597 63.0394546304 70.2025115299
46 3 2 29.0733681158 62.4938148856 70.3905771091
47 3 2 28.4145409901 61.717686221 70.5829858551
48 3 2 28.0169031493 60.7817572406 70.7814073824
49 3 2 27.9162233549 59.7712819205 70.9869632569
50 3 2 28.121203436 58.7783089359 71.2001247673
51 3 2 28.6126851411 57.8932916714 71.4206699694
52 3 2 29.3453963616 57.1968436359 71.6477039149
53 3 2 30.252077563 56.7523907572 71.879740224
54 3 2 31.2496123123 56.6003902781 72.114836565
55 4 1 19.7131788489 18.016790249 71.2305994396
56 4 1 25.1439324427 17.4664050639 70.3809038399
57 4 2 19.3914374992 17.7829641851 70.8443489201
58 4 2 18.9279600011 17.4653569758 69.9738523489
59 4 2 18.6884008189 17.3143206437 68.9772333466
60 4 2 18.7043268257 17.3275371725 67.9413657407
61 4 2 18.9840181026 17.4877173362 66.9567007642
62 4 2 19.5117132312 17.7641765666 66.1090226671
63 4 2 20.2490459051 18.1156317691 65.4716297116
64 4 2 21.1385419158 18.493964167 65.0986532312
65 4 2 22.1088577732 18.8486051988 65.0201237044
66 4 2 23.0812834744 19.1311457078 65.239233557
67 4 2 23.9769167099 19.2997483073 65.7320461807
68 4 2 24.7238545981 19.3229607464 66.4496776914
69 4 2 25.2637474408 19.1825826989 67.3227525641
70 4 2 25.5571171424 18.8753246739 68.2677270269
71 4 2 25.5869555329 18.4131078449 69.1945038526
72 4 2 25.3602746166 17.8219774657 70.0146444796
73 5 1 25.6807256821 91.7328022016 96.4258912065
74 5 1 20.5465979012 93.7283651191 96.8459526697
75 5 2 26.0257868187 92.0387150955 96.1181060518
76 5 2 26.4962220297 92.6002059886 95.3853928061
77 5 2 26.6984236973 93.1184790757 94.5113461803
78 5 2 26.6086069953 93.5641365592 93.5803400694
79 5 2 26.2296037917 93.9143993597 92.6819400731
80 5 2 25.590604531 94.1551833683 91.902739831
81 5 2 24.7444976036 94.2823831752 91.3184682437
82 5 2 23.76304871 94.3022462671 90.987086986
83 5 2 22.7303596092 94.2308035853 90.9435074549
84 5 2 21.7352024682 94.0924083485 91.1964086893
85 5 2 20.8629285162 93.9175163216 91.7274462988
86 5 2 20.1876885081 93.7399098546 92.4929245059
87 5 2 19.7656740813 93.5936187114 93.4277788989
88 5 2 19.6299960386 93.5098183477 94.4515068799
89 5 2 19.7876663865 93.5139883518 95.4755052605
90 5 2 20.2189592097 93.623590048 96.4111462066
91 6 1 63.9523187804 45.8640286098 44.1164502504
92 6 1 69.2024092244 44.5365338132 45.208374678
93 6 2 63.6346045421 45.9470101506 44.5631641575
94 6 2 63.1283793664 45.8944704063 45.465619507
95 6 2 62.7864431322 45.5847042588 46.3932910851
96 6 2 62.6521555264 45.054895241 47.2734724611
97 6 2 62.7499496182 44.3622832048 48.0377858093
98 6 2 63.0831048503 43.5789470626 48.628414365
99 6 2 63.6334481267 42.7852349862 49.0033722681
100 6 2 64.3630102416 42.0624408863 49.140331462
101 6 2 65.217486671 41.4853946894 49.0386568366
102 6 2 66.1311872851 41.1156417904 48.7194641164
103 6 2 67.0330238279 40.995833354 48.2236952188
104 6 2 67.8529894218 41.1458387751 47.6083865079
105 6 2 68.5285395073 41.5609346369 46.9414700824
106 6 2 69.0102926127 42.2122352373 46.2955819461
107 6 2 69.2665313429 43.0493254435 45.7414414305
108 6 2 69.2860933354 44.0048558968 45.3414053167
109 7 1 59.5494386667 23.6508170567 13.2202869914
110 7 1 56.3293684983 20.7669229703 16.6600971708
111 7 2 59.6098290805 24.1863040878 13.3506258782
112 7 2 59.4877795478 25.1829517816 13.6060613835
113 7 2 59.0719637718 26.0937412908 13.8725378768
114 7 2 58.4012182366 26.834920047 14.144942887
115 7 2 57.5376155926 27.3381950484 14.4176235746
116 7 2 56.5608069001 27.5569575846 14.6849019727
117 7 2 55.5607616481 27.4705314961 14.9415925187
118 7 2 54.6295672761 27.0860577508 15.1834747044
119 7 2 53.8530356497 26.4378435637 15.4076777643
120 7 2 53.3028815387 25.5842353864 15.6129423375
121 7 2 53.0301860074 24.6023007837 15.799735256
122 7 2 53.0607405123 23.580803931 15.9702069934
123 7 2 53.3926960794 22.612114997 16.1279956556
124 7 2 53.9967318334 21.78379085 16.2778953768
125 7 2 54.8187275176 21.1705944828 16.425419347
126 7 2 55.7846964097 20.8276805664 16.5762972997
127 8 1 36.567747589 6.25210057532 87.572196115
128 8 1 31.1669739024 6.27767867129 88.7336522739
129 8 2 36.7348009629 6.65430369136 87.2291109772
130 8 2 36.868285089 7.33002480699 86.4551387728
131 8 2 36.7504893337 7.86567887577 85.5761342849
132 8 2 36.3814332733 8.22727100391 84.6780815201
133 8 2 35.7840381891 8.39667157832 83.8487006848
134 8 2 35.0020378544 8.37326873231 83.1694527224
135 8 2 34.0959923174 8.17402411567 82.7081143661
136 8 2 33.1377680153 7.83192688559 82.5126004713
137 8 2 32.2039873398 7.39298683315 82.6065967038
138 8 2 31.3690447119 6.91204071388 82.9874006554
139 8 2 30.6983257282 6.44775402401 83.6261681606
140 8 2 30.2422474395 6.0572737973 84.4705423657
141 8 2 30.0316629707 5.79101980568 85.4494259158
142 8 2 30.0750493412 5.68808893177 86.4794612886
143 8 2 30.3577348073 5.77269159252 87.47262861
144 8 2 30.8432361522 6.05194502446 88.3442684301
145 9 1 70.6510702899 52.348919754 95.2468424938
146 9 1 74.4518861421 48.4156298089 96.0220973724
147 9 2 70.7958246778 52.8525566177 95.4278885232
148 9 2 71.1190540282 53.6780319408 95.9641378021
149 9 2 71.5003732644 54.2878342308 96.7099171384
150 9 2 71.9236771457 54.6269582439 97.5926734688
151 9 2 72.3690336436 54.6650703377 98.5273686433
152 9 2 72.8145006924 54.3992733018 99.424230425
153 9 2 73.2381261497 53.8543704305 100.196934989
154 9 2 73.6199486763 53.0806047694 100.770475111
155 9 2 73.943817158 52.1490795953 101.08799687
156 9 2 74.198862837 51.1452775431 101.115981738
157 9 2 74.3804899702 50.161269092 100.847301698
158 9 2 74.4907947185 49.2873205874 100.301868948
159 9 2 74.5383740875 48.6036667046 99.5248209549
160 9 2 74.5375423338 48.1731972728 98.5824062969
161 9 2 74.5070262581 48.0357250353 97.555946281
162 9 2 74.4682583079 48.2043568241 96.5344227242
163 10 1 96.3388725793 94.848785022 16.1657153176
164 10 1 95.7935528285 95.8686982252 21.5676033661
165 10 2 96.3528376889 95.2994918463 15.8431476157
166 10 2 96.1846665286 96.2001611074 15.3594500303
167 10 2 95.7869075889 97.1144973765 15.0779770759
168 10 2 95.2060328145 97.971352799 15.0351601089
169 10 2 94.5052046691 98.7048187457 15.2456776303
170 10 2 93.7585190456 99.2602332084 15.7011173797
171 10 2 93.0442516232 99.5991630959 16.37074309
172 10 2 92.4377232491 99.7029073072 17.2042960165
173 10 2 92.0044346439 99.5742012872 18.1365758866
174 10 2 91.7940961865 99.2369676981 19.0933837309
175 10 2 91.8360969455 98.7341359326 19.9982849205
176 10 2 92.1368259446 98.1237292148 20.7795759797
177 10 2 92.6790898199 97.4735759378 21.3768201653
178 10 2 93.4236799488 96.8551272877 21.7463561151
179 10 2 94.3129462119 96.3369446585 21.8652774639
180 10 2 95.2760516466 95.9784504642 21.7335206975
181 11 1 82.5253666126 50.5772592693 57.0215233829
182 11 1 78.3188049556 50.1679701199 60.5789539838
183 11 2 82.651125435 51.0946519742 56.8670206467
184 11 2 82.6554509106 52.0759230861 56.5345476306
185 11 2 82.3583915274 53.0052532044 56.1859056003
186 11 2 81.784473634 53.8076287992 55.8692643717
187 11 2 80.9834584924 54.4196079062 55.629876973
188 11 2 80.0258066716 54.795102692 55.5059549526
189 11 2 78.9962557554 54.9095802372 55.5251854981
190 11 2 77.986096738 54.762298646 55.7022078233
191 11 2 77.0848530938 54.3763746683 56.037278843
192 11 2 76.3721209519 53.7966766698 56.5162497562
193 11 2 75.910314122 53.0857350003 57.1118556708
194 11 2 75.7389752422 52.3180425193 57.7862007265
195 11 2 75.8711715734 51.5732647712 58.4942122003
196 11 2 76.2923039531 50.9289786836 59.1877487655
197 11 2 76.9614374704 50.453601638 59.8199884445
198 11 2 77.8150325735 50.2001554081 60.3496963071
199 12 1 23.6536243416 77.181281077 37.9175124839
200 12 1 23.0129929176 72.2326517664 40.2878817349
201 12 2 23.3543348928 77.5893033913 38.1440631512
202 12 2 22.6176718153 78.1993098531 38.5423967274
203 12 2 21.7111989294 78.5591354136 38.8920858528
204 12 2 20.7185628659 78.6316536474 39.1799482545
205 12 2 19.7312637987 78.4059254237 39.3984370004
206 12 2 18.8403154487 77.8981959797 39.5463283814
207 12 2 18.1279494268 77.1504142096 39.6288334498
208 12 2 17.6601200416 76.2264091359 39.6571230454
209 12 2 17.4804927411 75.2060720639 39.6473096034
210 12 2 17.6064641235 74.1780747033 39.6189785492
211 12 2 18.0275762839 73.2317869786 39.5934031388
212 12 2 18.7064700242 72.4491311993 39.591605459
213 12 2 19.5822900444 71.8971150604 39.6324403195
214 12 2 20.5762317404 71.6217240703 39.7308766885
215 12 2 21.598724033 71.6437300942 39.8966333101
216 12 2 22.5575935325 71.9567980546 40.1332928677
217 13 1 9.91425273782 63.377132809 38.4150806034
218 13 1 13.052649639 58.8993975288 39.2014283082
219 13 2 9.77260095242 63.6473312048 38.8780160057
220 13 2 9.44226744771 63.9384037165 39.8158894405
221 13 2 9.0669824572 63.9278151395 40.7815493543
222 13 2 8.69702689483 63.6150955499 41.6974037921
223 13 2 8.38219591138 63.0273134584 42.4904004352
224 13 2 8.16726019963 62.2166085871 43.0986851241
225 13 2 8.08788526531 61.2554394742 43.4772397006
226 13 2 8.16738061163 60.229979071 43.601985292
227 13 2 8.41457514034 59.2322603082 43.4719770363
228 13 2 8.82301242093 58.3517875402 43.1094902039
229 13 2 9.37153917701 57.6673784621 42.5579898658
230 13 2 10.026233351 57.2399800879 41.8781691692
231 13 2 10.7434960087 57.1071135929 41.1424173188
232 13 2 11.4740252663 57.2794543587 40.4282214944
233 13 2 12.1673100243 57.7398589408 39.8111041019
234 13 2 12.7762339203 58.444927648 39.3577391074
235 14 1 9.44497479961 10.4905788138 8.05636898374
236 14 1 5.36654623522 6.80188278069 8.58356257419
237 14 2 9.31207105268 11.0083650336 8.20339147413
238 14 2 8.87933929457 11.9402903897 8.3364642636
239 14 2 8.23300365518 12.7486035529 8.28819333351
240 14 2 7.42075498471 13.3565803603 8.07827356281
241 14 2 6.50540666271 13.7057567727 7.74113369025
242 14 2 5.55916932641 13.7612577148 7.32279822678
243 14 2 4.65706906413 13.5149758459 6.8766924445
244 14 2 3.87010898784 12.9863105216 6.4587728058
245 14 2 3.25879748933 12.2203995949 6.12242668146
246 14 2 2.86763306198 11.2840052213 5.91360623441
247 14 2 2.72104838203 10.2594286669 5.86664000298
248 14 2 2.82118333547 9.23700876773 6.00110394632
249 14 2 3.14768997309 8.30688778658 6.32003714809
250 14 2 3.65958717175 7.55079518652 6.80966481205
251 14 2 4.29899595416 7.03459820884 7.440653798
252 14 2 4.99641500295 6.80229825 8.17078625905
253 15 1 95.2992811104 10.5130524644 29.2786140297
254 15 1 91.7095723957 14.4964160644 30.6070705909
255 15 2 95.3402269413 10.1024953354 29.6489488387
256 15 2 95.444052099 9.51195443422 30.4938936842
257 15 2 95.5595275562 9.19605372809 31.4738539762
258 15 2 95.6578704278 9.1815885137 32.5051490108
259 15 2 95.7118594181 9.46787904841 33.4994190595
260 15 2 95.6983159692 10.0268325069 34.3716791225
261 15 2 95.6002169244 10.805503567 35.0480650838
262 15 2 95.4082461437 11.7309202347 35.4725662285
263 15 2 95.121643645 12.7167350457 35.6121304692
264 15 2 94.7482748741 13.6710954066 35.4596769562
265 15 2 94.3039137909 14.505015713 35.0347414771
266 15 2 93.8108051145 15.1404881496 34.3816958226
267 15 2 93.2956367772 15.5175928939 33.5657034162
268 15 2 92.7871073902 15.5999596482 32.6667798424
269 15 2 92.3133104421 15.3780826947 31.7724996399
270 15 2 91.8991736527 14.8701873163 30.9700141164
271 16 1 86.6917226611 67.6141833588 40.7800510739
272 16 1 86.0554796096 66.9266085549 35.3357488478
273 16 2 86.3275687167 67.3386124253 41.0944300703
274 16 2 85.488942712 66.9234980089 41.5392181737
275 16 2 84.5112723431 66.6571591867 41.7552605136
276 16 2 83.4818912872 66.5473589243 41.7132063189
277 16 2 82.4928465126 66.587592116 41.4072296281
278 16 2 81.6325084434 66.7576785078 40.8555603093
279 16 2 80.9775162315 67.0256020737 40.0988224575
280 16 2 80.5857923027 67.3504291905 39.1963316161
281 16 2 80.4912628824 67.6860396288 38.2206883239
282 16 2 80.7007657109 67.9853302878 37.2511607701
283 16 2 81.1934268018 68.2045085179 36.366459711
284 16 2 81.9225630497 68.3070837031 35.6375641941
285 16 2 82.8199372708 68.2671932834 35.1212520085
286 16 2 83.8019778396 68.0719600578 34.8549245409
287 16 2 84.7773960194 67.7226659068 34.8531977389
288 16 2 85.6555066864 67.2346349527 35.1065699066
289 17 1 65.6592376587 74.6450268447 97.716309471
290 17 1 65.6667352724 80.0579601156 98.8199798258
291 17 2 65.6744751278 74.5165339693 97.1772000307
292 17 2 65.5244027193 74.4289370725 96.1558014469
293 17 2 65.1651014007 74.5572933033 95.1925375933
294 17 2 64.6412486019 74.9033086964 94.3683400417
295 17 2 64.0125201803 75.4488502358 93.7514648421
296 17 2 63.3481511258 76.1575986303 93.3912711665
297 17 2 62.7206249771 76.9783587202 93.3137223517
298 17 2 62.1990671403 77.8497257792 93.5190194111
299 17 2 61.8429442931 78.7056823909 93.9815827125
300 17 2 61.6966441562 79.48161576 94.6523834935
301 17 2 61.7854296708 80.120206996 95.4634127018
302 17 2 62.1131363496 80.5766555766 96.3338798391
303 17 2 62.6618226796 80.8227627959 97.1775767984
304 17 2 63.3934054432 80.8495020007 97.910735503
305 17 2 64.2531309018 80.667841346 98.4596631426
306 17 2 65.1745654526 80.3077440771 98.7674590762
307 18 1 87.2688092734 26.117544856 81.3527727168
308 18 1 91.4599546828 27.0824252906 77.8855985122
309 18 2 86.7964557049 26.3790385657 81.2267380622
310 18 2 86.0530666178 27.0568519002 80.9789644561
311 18 2 85.549789606 27.9243771673 80.7190372133
312 18 2 85.3324155042 28.9014161984 80.4514680769
313 18 2 85.4206758608 29.8977889381 80.1814653283
314 18 2 85.8064444605 30.821553115 79.9144590662
315 18 2 86.4544780066 31.5873845344 79.6556062672
316 18 2 87.3056284535 32.12435415 79.4093207421
317 18 2 88.282234193 32.3823930575 79.1788708279
318 18 2 89.2951987023 32.3368561409 78.966081488
319 18 2 90.2521114541 31.9907684094 78.7711679717
320 18 2 91.0656708886 31.3745492754 78.5927161949
321 18 2 91.6616417181 30.543239907 78.4278116298
322 18 2 91.9856212744 29.571486372 78.2723049564
323 18 2 92.007998167 28.5467358487 78.1211902622
324 18 2 91.7266512822 27.5612660492 77.9690613173
325 19 1 60.5358776825 88.7507700436 88.4980685028
326 19 1 55.7418329435 89.2563100479 91.1961336255
327 19 2 60.7521814555 88.2402885843 88.4997847481
328 19 2 61.1196976553 87.3005565249 88.7349134589
329 19 2 61.3969045303 86.4454975603 89.2501614832
330 19 2 61.5428143083 85.7421463737 89.9967922195
331 19 2 61.5284065963 85.2437098901 90.90497915
332 19 2 61.3392735123 84.9847176067 91.890170342
333 19 2 60.9769329246 84.977874322 92.8607951301
334 19 2 60.458690103 85.2129021273 93.7266105375
335 19 2 59.8160603887 85.6574772102 94.4069266825
336 19 2 59.0918966562 86.2601760843 94.8379614454
337 19 2 58.3364833875 86.9551627022 94.9786540381
338 19 2 57.6029533765 87.6681892352 94.8144075852
339 19 2 56.9424448164 88.3233635647 94.3584195905
340 19 2 56.3994401907 88.8500666457 93.6504790196
341 19 2 56.007711813 89.1893892442 92.7533396417
342 19 2 55.7872435713 89.2995013564 91.7470001918
343 20 1 65.2964451321 48.8701878973 87.7857462859
344 20 1 70.032986036 47.0024498312 89.9292774481
345 20 2 65.3537854227 49.2668760255 87.4026898826
346 20 2 65.597507429 50.1086166906 86.8499492132
347 20 2 66.0118238806 51.0079310293 86.5449482143
348 20 2 66.5746407388 51.8769394741 86.5060699671
349 20 2 67.2503285497 52.6305247589 86.7274411754
350 20 2 67.9929699739 53.1940901299 87.1794675009
351 20 2 68.7505450289 53.5103586407 87.8115310074
352 20 2 69.4696725717 53.5445937928 88.5566038513
353 20 2 70.1004758473 53.2877656744 89.3373576898
354 20 2 70.6011286217 52.7573740129 90.0732119525
355 20 2 70.941667531 51.9958531215 90.6876785459
356 20 2 71.1067231624 51.0667041249 91.1153335377
357 20 2 71.0969209347 50.0487070018 91.3077803738
358 20 2 70.9288240932 49.0287399997 91.238061095
359 20 2 70.6334240142 48.0938609158 90.9031134827
360 20 2 70.2533154238 47.3233720107 90.3240501721
361 21 1 36.4404211363 91.71243471 25.0732619185
362 21 1 38.8756497483 93.9097979989 29.5183994017
363 21 2 36.3105744206 92.0753169822 24.6747172221
364 21 2 35.9691035633 92.8721596721 24.1073642524
365 21 2 35.5397214927 93.7688772198 23.8158532091
366 21 2 35.0766429132 94.6956340971 23.8272519229
367 21 2 34.6371538761 95.5798567717 24.1410188097
368 21 2 34.2763903087 96.3528485897 24.7290522347
369 21 2 34.0423125225 96.956051293 25.538251901
370 21 2 33.9713337583 97.346382447 26.4953588002
371 21 2 34.0850012172 97.5001622902 27.5136325747
372 21 2 34.3880320904 97.4152720807 28.5007576698
373 21 2 34.8678836002 97.1113472141 29.3672576497
374 21 2 35.4958962404 96.6279875094 30.0346507354
375 21 2 36.2299060136 96.0211477916 30.4426032091
376 21 2 37.0180875674 95.3580377589 30.5544286716
377 21 2 37.803677936 94.7109959983 30.3604319089
378 21 2 38.5301503334 94.1508965166 29.8787925858
379 22 1 62.0533038721 27.1333201181 38.7970191535
380 22 1 57.2877032336 26.3837562563 36.1053290464
381 22 2 62.4982882809 27.1934948404 38.4718277226
382 22 2 63.2485167021 27.1101949698 37.7621316899
383 22 2 63.8271338152 26.788765101 36.9650525927
384 22 2 64.1742735764 26.268947046 36.1387758915
385 22 2 64.2511684838 25.6085651695 35.34414833
386 22 2 64.0436831317 24.8782558527 34.6391319176
387 22 2 63.5636026147 24.1550291765 34.073520847
388 22 2 62.8475583485 23.5152496575 33.6844028865
389 22 2 61.9536892136 23.0276758275 33.4927789293
390 22 2 60.9563423519 22.7471930761 33.5016488178
391 22 2 59.9392966238 22.7098109949 33.6957379164
392 22 2 58.9881263886 22.9293811991 34.0428893535
393 22 2 58.1824016305 23.3963347897 34.4969950346
394 22 2 57.5884353671 24.0785545333 35.0021982714
395 22 2 57.2532393954 24.9243022622 35.4979849703
396 22 2 57.2002392918 25.8669346697 35.9246993298
397 23 1 84.9362500331 48.9867813319 26.9698270327
398 23 1 82.1354527606 45.0341643048 29.6250754837
399 23 2 84.7320565003 49.4986539055 27.030432788
400 23 2 84.1478671292 50.3527632521 27.0821049655
401 23 2 83.3433821718 51.0054294342 27.0653473022
402 23 2 82.3863720203 51.3969924219 27.0000785677
403 23 2 81.3585093306 51.4915910437 26.9106391864
404 23 2 80.347924778 51.2804316363 26.8235726722
405 23 2 79.4411741819 50.7825895634 26.7652062588
406 23 2 78.7153491741 50.0432705477 26.7592512422
407 23 2 78.2310505026 49.1296902895 26.82464176
408 23 2 78.0268644354 48.1249479358 26.9738089946
409 23 2 78.115845725 47.120451815 27.2115481048
410 23 2 78.4843277034 46.2075878119 27.5345811597
411 23 2 79.0931679614 45.4693897887 27.9318559133
412 23 2 79.8813160754 44.9729712703 28.3855531871
413 23 2 80.7713781897 44.7634082262 28.8727110408
414 23 2 81.67667126 44.859630516 29.3673176916
415 24 1 81.9247137663 86.4320915054 77.748486794
416 24 1 82.9373413247 83.2810401066 73.3254277201
417 24 2 81.5694058129 86.2142248789 78.1140985818
418 24 2 80.7711662869 85.7744887032 78.6069431476
419 24 2 79.867209429 85.3121569843 78.8132472728
420 24 2 78.9448622561 84.8508046175 78.7138506061
421 24 2 78.093128013 84.4139172324 78.3174566065
422 24 2 77.3945737647 84.022750541 77.6598392459
423 24 2 76.9178046292 83.6943929365 76.8005823075
424 24 2 76.7112106042 83.4402079315 75.817648483
425 24 2 76.7985559481 83.2647984043 74.8002732819
426 24 2 77.1768131317 83.1655870591 73.8408314529
427 24 2 77.8164387889 83.1330513395 73.0264172728
428 24 2 78.6640665159 83.1515913841 72.4309061357
429 24 2 79.6473710761 83.2009519117 72.1082210086
430 24 2 80.6816606524 83.258068437 72.0874174967
431 24 2 81.6775962795 83.2991695359 72.3700355029
432 24 2 82.5493348523 83.3019435476 72.9299588698
433 25 1 18.1508427842 47.8349224988 94.8491192836
434 25 1 12.782779675 47.7434046341 96.1504701193
435 25 2 18.385679162 48.3369975086 94.8615349259
436 25 2 18.6404315045 49.3351755492 94.7511181947
437 25 2 18.6289941476 50.3375621834 94.4893162969
438 25 2 18.3438530617 51.2607223605 94.1152576656
439 25 2 17.8024415804 52.0284423099 93.6783026356
440 25 2 17.0455513988 52.5786762221 93.2335443798
441 25 2 16.1336145198 52.8692015587 92.8367873147
442 25 2 15.1411950382 52.8814675236 92.5394606764
443 25 2 14.150192823 52.622285919 92.3839308834
444 25 2 13.2423785632 52.1232102673 92.3996399507
445 25 2 12.4919405879 51.4376597924 92.6004219287
446 25 2 11.9587227985 50.6360503997 92.9832419671
447 25 2 11.6827700572 49.7993764547 93.5284729324
448 25 2 11.6806782044 49.0118283634 94.2016843697
449 25 2 11.9440813928 48.3531188414 94.9567807457
450 25 2 12.4404146114 47.8912173128 95.740202934
451 26 1 33.0894907367 28.7837821979 92.9484031364
452 26 1 34.8214105558 31.8894780925 97.1760618042
453 26 2 32.9567820555 29.0661531242 92.4901055759
454 26 2 32.5805056023 29.7229717558 91.7826769031
455 26 2 32.0795989893 30.5059300339 91.3249445456
456 26 2 31.5131995056 31.357351774 91.1584433251
457 26 2 30.9464139399 32.2133205302 91.2981631238
458 26 2 30.4443842718 33.0095054082 91.7311825963
459 26 2 30.0663501535 33.6870246544 92.4178469157
460 26 2 29.8602493743 34.1978125703 93.2953822056
461 26 2 29.8583484594 34.5090005725 94.2836172105
462 26 2 30.0743016619 34.6059130765 95.2922906919
463 26 2 30.5019064146 34.4934051365 96.2292784988
464 26 2 31.1156686769 34.1954199205 97.0089904376
465 26 2 31.8731266491 33.7528063545 97.56017159
466 26 2 32.7187210513 33.219595852 97.832397008
467 26 2 33.5888592037 32.6580774952 97.8006678131
468 26 2 34.4177113294 32.1331205516 97.4676897775
469 27 1 80.0571335779 85.876563889 92.2737284101
470 27 1 76.7423902605 81.8725208016 90.4034057762
471 27 2 80.4251899539 86.0663428598 91.9050821917
472 27 2 81.161294685 86.1926228124 91.1869922185
473 27 2 81.8922105874 86.0127534642 90.4750519313
474 27 2 82.5410206705 85.5429780984 89.8179320085
475 27 2 83.0382916699 84.8259641568 89.2593063989
476 27 2 83.3284027037 83.9269142165 88.8338715577
477 27 2 83.374614967 82.9276229495 88.5641839577
478 27 2 83.1624203759 81.9190217567 88.4586041268
479 27 2 82.7008639409 80.992890614 88.5105346086
480 27 2 82.0217193378 80.2334925725 88.6990213024
481 27 2 81.1765928225 79.7098934068 88.990663374
482 27 2 80.2322194585 79.4696664542 89.3426576521
483 27 2 79.2643803944 79.5345564322 89.7067000232
484 27 2 78.3509956145 79.8984974656 90.0333882221
485 27 2 77.5650217408 80.5281659747 90.2767247167
486 27 2 76.9678022316 81.3660180308 90.3983092601
487 28 1 97.2152731917 90.4737548369 84.5828071272
488 28 1 96.3658681902 85.1942657959 83.1959049422
489 28 2 97.0725816956 90.6046594476 85.1023114177
490 28 2 96.6037166373 90.7436956252 86.015703179
491 28 2 95.9150708329 90.7215017925 86.7894760146
492 28 2 95.0748404692 90.5243765236 87.3627164314
493 28 2 94.1650382604 90.1545629253 87.6927889304
494 28 2 93.2740182086 89.6300441841 87.7592221184
495 28 2 92.4884223722 88.9829044468 87.5655746207
496 28 2 91.8852836743 88.2564044362 87.139110722
497 28 2 91.5250045576 87.5010383519 86.5283152996
498 28 2 91.4458514629 86.7699314591 85.7984745566
499 28 2 91.6604669456 86.1139978624 85.0257253589
500 28 2 92.1547173403 85.5772998215 84.2901155633
501 28 2 92.8889810069 85.1930315937 83.6683078694
502 28 2 93.801759737 84.9804938664 83.2265922194
503 28 2 94.8152841514 84.9433345508 83.014843647
504 28 2 95.8426021709 85.0692162847 83.0619763015
505 29 1 71.5645415922 24.6813934585 77.8294699293
506 29 1 70.7212512432 27.1993998399 72.985246946
507 29 2 71.1611683833 24.3346676738 77.9858440725
508 29 2 70.2679896362 23.8702205671 78.2307330717
509 29 2 69.2617464573 23.6740342035 78.3805182071
510 29 2 68.2292025353 23.7559680617 78.4048061309
511 29 2 67.2595188014 24.1005317054 78.2846422305
512 29 2 66.4361266488 24.6682966953 78.0142382912
513 29 2 65.8291233838 25.3994903861 77.6015000762
514 29 2 65.4888830441 26.2194440429 77.0673067376
515 29 2 65.4414649397 27.0453986975 76.4436077371
516 29 2 65.6862384167 27.7940484065 75.7705107387
517 29 2 66.1959403391 28.389133366 75.0926259016
518 29 2 66.9191600516 28.7683907882 74.4549997836
519 29 2 67.7850253229 28.8892299887 73.8990094682
520 29 2 68.70966216 28.7326144134 73.4585911533
521 29 2 69.6038396993 28.3047967691 73.1571469583
522 29 2 70.3811033602 27.6367491066 73.0054118825
523 30 1 4.68461618495 12.7853270848 57.3670136135
524 30 1 9.32597081635 15.2019363639 55.596189557
525 30 2 4.52828376849 12.9272530157 57.8796526617
526 30 2 4.45880043828 13.1389922681 58.8914770373
527 30 2 4.68713126105 13.2801989753 59.8921646571
528 30 2 5.19690542718 13.3566911284 60.7909022502
529 30 2 5.94609931853 13.3801852772 61.5061690181
530 30 2 6.87086684892 13.3672285978 61.9731670378
531 30 2 7.89135886425 13.337690662 62.1497274189
532 30 2 8.91900117946 13.3129523787 62.0201538856
533 30 2 9.86456787874 13.3139571813 61.5966534502
534 30 2 10.6463140194 13.3593020899 60.9182237766
535 30 2 11.1974264646 13.4635426422 60.0470986472
536 30 2 11.4721137227 13.6358661955 59.0630755202
537 30 2 11.4497797188 13.8792545237 58.0562422047
538 30 2 11.1369010723 14.1902120361 57.1187655974
539 30 2 10.5664367702 14.5590843916 56.3364909164
540 30 2 9.79482404348 14.9709384661 55.7811171391
541 31 1 31.5827712323 16.1180087362 34.5703841747
542 31 1 33.9044604147 11.1057588969 34.6418121101
543 31 2 31.7003611687 16.4235513993 34.1229494018
544 31 2 32.1421335358 16.9367370972 33.3387761899
545 31 2 32.8359920427 17.3226746024 32.673146694
546 31 2 33.718549821 17.5329392793 32.1728162584
547 31 2 34.7092205683 17.5351186012 31.8694736599
548 31 2 35.7175637741 17.3157664654 31.7768527603
549 31 2 36.6515281304 16.8816287693 31.8894807019
550 31 2 37.4258417625 16.2590285402 32.1831767437
551 31 2 37.9697845327 15.4914666614 32.6172562712
552 31 2 38.2336339914 14.6356568834 33.1382390906
553 31 2 38.1931974459 13.7563565165 33.6847240051
554 31 2 37.8520170595 12.9204639757 34.1929853702
555 31 2 37.2410469926 12.1909211684 34.6027815158
556 31 2 36.4158320141 11.6209765083 34.8628456133
557 31 2 35.4514447437 11.2493314644 34.9355585101
558 31 2 34.4356429839 11.0966130258 34.8003776149
559 32 1 68.476698569 64.7769052319 77.3124204711
560 32 1 67.0339660727 61.7136083857 81.6773633615
561 32 2 68.3165716616 65.3071738148 77.3360041845
562 32 2 67.8074339386 66.204572704 77.4303653203
563 32 2 67.0694056636 66.9121487978 77.5979969045
564 32 2 66.1723636271 67.3694447365 77.8422222519
565 32 2 65.2006782986 67.5388155274 78.1593833605
566 32 2 64.2455236845 67.4088597858 78.5391743288
567 32 2 63.3965670606 66.99545894 78.9655807106
568 32 2 62.7337960396 66.3403296821 79.4183391898
569 32 2 62.3202279144 65.5072216031 79.8747845268
570 32 2 62.1961657999 64.5761065875 80.3119154348
571 32 2 62.3755251118 63.6358895904 80.7084910855
572 32 2 62.8445652138 62.7763051881 81.0469671542
573 32 2 63.56314184 62.0797385112 81.3150949374
574 32 2 64.4683661371 61.6137160607 81.5070377902
575 32 2 65.4803368155 61.4247508472 81.6239031201
576 32 2 66.5094229383 61.534102855 81.6736414505
577 33 1 64.2116858323 76.0309993318 38.2874946002
578 33 1 60.9419968079 73.1659097673 41.6960700405
579 33 2 64.331121823 76.5455211044 38.4559700518
580 33 2 64.3212606608 77.5233634539 38.7982814714
581 33 2 64.0119309513 78.4417914771 39.1646898614
582 33 2 63.4333420046 79.2146223048 39.5407448489
583 33 2 62.6402453906 79.7689438634 39.9111167995
584 33 2 61.7069444797 80.0517606148 40.2609940723
585 33 2 60.7205218892 80.0348239586 40.5774330616
586 33 2 59.7729021358 79.7172070164 40.850537972
587 33 2 58.9524729609 79.1253891141 41.0743627933
588 33 2 58.3360290248 78.3108422623 41.2474532638
589 33 2 57.9817722785 77.3453396199 41.3729794224
590 33 2 57.9240070115 76.3144135629 41.4584466678
591 33 2 58.1700131073 75.3095596364 41.5150116616
592 33 2 58.6993825015 74.4198969808 41.5564654283
593 33 2 59.4658793226 73.7240453597 41.5979763405
594 33 2 60.4016541679 73.2829591791 41.654707562