LAMMPS input file for bananas

648 atoms

2 atom types

0 42.5063427673 xlo xhi
0 42.5063427673 ylo yhi
0 42.5063427673 zlo zhi

Masses

 1 1
 2 1

Atoms

1 1 1 10.4330588122 31.2900432004 12.5988206676
2 1 1 7.58837500844 28.106987217 16.1050893002
3 1 2 10.425560323 31.8317773433 12.7165044776
4 1 2 10.1789595432 32.8110071099 12.9483387519
5 1 2 9.65161151878 33.6685655214 13.1931808302
6 1 2 8.89254321543 34.3261233191 13.4479023736
7 1 2 7.97190228289 34.723580766 13.7084745563
8 1 2 6.97456328418 34.8245455768 13.9703352822
9 1 2 5.99239160608 34.6196499775 14.2288050083
10 1 2 5.11587017461 34.127404553 14.4795132718
11 1 2 4.42585217822 33.3925110567 14.7187970466
12 1 2 3.9861915157 32.4817879652 14.9440346183
13 1 2 3.83792268403 31.4780801529 15.1538845462
14 1 2 3.99552059362 30.4727078028 15.3484079324
15 1 2 4.44558121892 29.5571428162 15.5290628522
16 1 2 5.14804333952 28.8146713932 15.6985714545
17 1 2 6.03984001335 28.3128027181 15.8606718453
18 1 2 7.04064695984 28.097115678 16.0197773694
19 2 1 12.3411002368 35.2360007007 1.06776058437
20 2 1 17.7299030187 34.1517440995 1.61838138119
21 2 2 12.0662504312 35.3023070496 1.54467005217
22 2 2 11.6559702028 35.2226762335 2.49270964969
23 2 2 11.4233928628 34.8937029855 3.44724325003
24 2 2 11.402609365 34.3548376718 4.33191394081
25 2 2 11.6084062207 33.6646617595 5.07673262712
26 2 2 12.0349177474 32.8955482724 5.6244573505
27 2 2 12.6561607104 32.127065183 5.93581074038
28 2 2 13.428402625 31.4387230049 5.9930600415
29 2 2 14.2941478556 30.902727622 5.80163340714
30 2 2 15.1873781894 30.5773989147 5.38962513741
31 2 2 16.0395702196 30.5018550592 4.80523495895
32 2 2 16.7859410714 30.6924470099 4.11237474865
33 2 2 17.3713531875 31.1412681539 3.38484313685
34 2 2 17.7553399691 31.8168749776 2.69959895951
35 2 2 17.9157941983 32.6671530586 2.12974666595
36 2 2 17.8509830519 33.6240671564 1.73787304368
37 3 1 35.0977170993 23.341466977 37.1789375161
38 3 1 32.1698186 20.1420924814 40.6008381978
39 3 2 34.8562216082 23.4432494682 36.6903662927
40 3 2 34.3780305198 23.3998150055 35.7722722116
41 3 2 33.8878387117 23.058808756 34.9255864729
42 3 2 33.4119039496 22.4532771186 34.2325730895
43 3 2 32.9751845077 21.6403772745 33.7614892501
44 3 2 32.5990642886 20.6961674626 33.5603638585
45 3 2 32.2994037377 19.7086744745 33.6526198275
46 3 2 32.0850942058 18.7698702475 34.0349391432
47 3 2 31.9572475267 17.9672888686 34.6775652927
48 3 2 31.9090946762 17.3760480761 35.527015491
49 3 2 31.9266027506 17.0520024788 36.510955494
50 3 2 31.9897540282 17.0266525578 37.5447926711
51 3 2 32.0743705317 17.3042734813 38.5393863979
52 3 2 32.1543177856 17.8615254351 39.4091729854
53 3 2 32.203886904 18.6495809837 40.0799645819
54 3 2 32.200137887 19.5985755611 40.4957111972
55 4 1 12.8767738751 30.9765254934 3.47161201489
56 4 1 17.140497967 32.7968202507 6.47580490586
57 4 2 12.4275053129 31.301194691 3.48298123545
58 4 2 11.6184333962 31.8963657032 3.73719396348
59 4 2 10.9204441108 32.4435794843 4.27274792561
60 4 2 10.4050137146 32.910491998 5.04071551765
61 4 2 10.126978711 33.2720784539 5.97098525427
62 4 2 10.1195376475 33.5129142501 6.97865224341
63 4 2 10.3912251575 33.6285808848 7.97175704035
64 4 2 10.9251340509 33.6260686905 8.85966750524
65 4 2 11.6804563592 33.5231396844 9.56133968046
66 4 2 12.596202873 33.3467086074 10.0127047307
67 4 2 13.5967621456 33.1303897178 10.1725086461
68 4 2 14.5987922735 32.9114329415 10.0260724349
69 4 2 15.5188172892 32.7273286407 9.5866300745
70 4 2 16.2808357717 32.6123904676 8.89412226955
71 4 2 16.8232481732 32.5946277666 8.01155596364
72 4 2 17.1044714533 32.6931925977 7.01926142472
73 5 1 32.1623583407 35.8516828561 17.8163362932
74 5 1 31.3752264955 31.8540953181 21.5469807945
75 5 2 32.3538408194 36.3293275012 18.0226652572
76 5 2 32.5340016497 37.1964721222 18.5603010938
77 5 2 32.4798716176 37.9558119545 19.263097629
78 5 2 32.2086810099 38.5319421942 20.0803978262
79 5 2 31.7574446045 38.8661571019 20.9511079462
80 5 2 31.1795878727 38.9218008742 21.8092660781
81 5 2 30.54007739 38.687608722 22.5900543909
82 5 2 29.9094993066 38.1787336262 23.2357071063
83 5 2 29.3576256083 37.4353651839 23.700775694
84 5 2 28.9470545868 36.5190664338 23.9562713847
85 5 2 28.727505172 35.50716255 23.9923074182
86 5 2 28.7312851854 34.4856928592 23.8190001957
87 5 2 28.9703465677 33.5415685855 23.4655471965
88 5 2 29.4351959919 32.7546511254 22.9775657062
89 5 2 30.0957601543 32.190472894 22.4129349225
90 5 2 30.9041268759 31.8942642215 21.8365204216
91 6 1 5.00335887486 5.84153439954 21.6681122314
92 6 1 4.42358170702 2.2923877517 25.8616080963
93 6 2 5.15244801051 6.35481280009 21.8154190581
94 6 2 5.25186245895 7.29385426421 22.2417615346
95 6 2 5.12155635544 8.12848205076 22.8416505148
96 6 2 4.78577838361 8.77914099709 23.5746894635
97 6 2 4.28750543871 9.18304420868 24.3883455821
98 6 2 3.68452539845 9.29989591668 25.222738032
99 6 2 3.04416991244 9.11556432957 26.0160959139
100 6 2 2.43717730228 8.6433697082 26.7103885193
101 6 2 1.9312449526 7.9228702596 27.2566146751
102 6 2 1.58485887539 7.01625651214 27.6192690693
103 6 2 1.44196286636 6.00268281508 27.7795784652
104 6 2 1.52795314535 4.97105263124 27.7372128321
105 6 2 1.84736355883 4.0119152239 27.5103154262
106 6 2 2.38345233189 3.20921233357 27.1338490818
107 6 2 3.09972803627 2.6326271126 26.6564094422
108 6 2 3.94327568651 2.33123269218 26.1357955966
109 7 1 22.7769146454 20.2834191575 16.5097577846
110 7 1 20.2968027647 17.4653140986 20.5625740891
111 7 2 22.6322545335 20.81744969 16.4741708424
112 7 2 22.143266706 21.7288381077 16.4132441013
113 7 2 21.4089602003 22.4590041011 16.3800539076
114 7 2 20.4947589352 22.9462689242 16.3961489444
115 7 2 19.4824837559 23.1510936234 16.478585678
116 7 2 18.4628946826 23.0596829076 16.6383737063
117 7 2 17.5274183778 22.6852425517 16.8794722633
118 7 2 16.7598148495 22.0667757263 17.1984293458
119 7 2 16.2285429512 21.2655279621 17.584696354
120 7 2 15.9805205397 20.3594047841 18.0215895683
121 7 2 16.0368480383 19.4358708306 18.4878108257
122 7 2 16.3908851893 18.5839776859 18.9593887906
123 7 2 17.0088562961 17.886247066 19.4118638776
124 7 2 17.8329287873 17.4111491847 19.8225176777
125 7 2 18.7864845013 17.2068618767 20.1724436805
126 7 2 19.7811032266 17.2968793168 20.4482705518
127 8 1 15.7363346112 35.6401454074 21.2005183976
128 8 1 17.5663341695 30.9397182298 23.4533115587
129 8 2 15.7135464745 35.6403087534 20.6465668996
130 8 2 15.892386963 35.563166487 19.6289642455
131 8 2 16.3387658189 35.3767712396 18.71274771
132 8 2 17.0060729381 35.0802063165 17.9777643999
133 8 2 17.8275611958 34.6825966943 17.4873424978
134 8 2 18.7224302684 34.2022773041 17.2825190678
135 8 2 19.6031913672 33.6651218511 17.3782996366
136 8 2 20.3836416077 33.1021844959 17.7622904795
137 8 2 20.9867211718 32.5468693504 18.3958282761
138 8 2 21.3515371047 32.0318857826 19.2175041679
139 8 2 21.4389135447 31.5862670449 20.1487610119
140 8 2 21.2349624984 31.2327239709 21.1010536543
141 8 2 20.7523496938 30.9855749434 21.9839195842
142 8 2 20.0291401339 30.8494408124 22.7132243504
143 8 2 19.1253285725 30.8188237167 23.2188301911
144 8 2 18.1173711533 30.8786081995 23.4509889036
145 9 1 3.54473348264 17.3339569081 14.9289067482
146 9 1 3.34283545131 17.8433279715 9.43183758667
147 9 2 3.59993516413 17.8110784624 15.2058352314
148 9 2 3.88045045683 18.7384167205 15.5729931495
149 9 2 4.35889647406 19.6475583217 15.7071608383
150 9 2 4.98058300941 20.4674490937 15.585773092
151 9 2 5.67776386607 21.1351698387 15.2095578996
152 9 2 6.37581174164 21.6016712501 14.6024700906
153 9 2 7.00002030725 21.8362446258 13.8095079167
154 9 2 7.48241348977 21.8293208843 12.892611581
155 9 2 7.76794130922 21.5933427608 11.9250175542
156 9 2 7.81949753727 21.1616306852 10.9845832661
157 9 2 7.62130183081 20.5853457141 10.1466906088
158 9 2 7.18033806803 19.9288263369 9.47737507889
159 9 2 6.52571778658 19.263724195 9.02730681844
160 9 2 5.70602674474 18.6624732255 8.82717216681
161 9 2 4.78489645941 18.191687502 8.88487668295
162 9 2 3.8352043634 17.9060895396 9.18482457482
163 10 1 5.53325676289 32.3833583012 8.95756724731
164 10 1 5.52817552255 34.2885386873 3.77217883961
165 10 2 5.88276508461 31.9634204028 9.05178870207
166 10 2 6.43307801244 31.0856901412 9.03781442173
167 10 2 6.81874812301 30.1622084049 8.76969120423
168 10 2 7.01975472217 29.2821918992 8.26114690142
169 10 2 7.03290870128 28.5308955896 7.54782310449
170 10 2 6.87214321592 27.98184194 6.6840265082
171 10 2 6.56724371603 27.6901195363 5.73777900079
172 10 2 6.16113308172 27.6873619089 4.78461765066
173 10 2 5.70595931749 27.9788642216 3.90070970453
174 10 2 5.25834240102 28.5431006309 3.15591014641
175 10 2 4.87421352349 29.3336863092 2.60739460256
176 10 2 4.60371711103 30.2836052983 2.29444793596
177 10 2 4.48664029428 31.3113188345 2.23488353606
178 10 2 4.54878641781 32.3281973889 2.4234196759
179 10 2 4.79962313418 33.2465990125 2.83216092748
180 10 2 5.23141945275 33.987857665 3.41314075538
181 11 1 10.4934319078 12.568400318 26.9854301222
182 11 1 8.23529615677 7.79953370494 25.3493600694
183 11 2 10.9888744642 12.5206113069 27.2296318252
184 11 2 11.805022974 12.2689734916 27.8161725578
185 11 2 12.4203935631 11.8154600921 28.5155255773
186 11 2 12.7870511077 11.1874755589 29.253528072
187 11 2 12.8797300132 10.4283269199 29.9524944343
188 11 2 12.6981371056 9.59327646076 30.5382970953
189 11 2 12.2669783539 8.74450471508 30.9471230555
190 11 2 11.6337069864 7.94544287515 31.1312902682
191 11 2 10.8641982563 7.25499120818 31.0635937314
192 11 2 10.0367450883 6.7221504544 30.7397851505
193 11 2 9.23492188772 6.38155554056 30.1789601592
194 11 2 8.53996695679 6.25031869894 29.4218178036
195 11 2 8.02337784065 6.32646973308 28.526950933
196 11 2 7.74039451714 6.58913559597 27.5655056177
197 11 2 7.72496442048 7.00044291245 26.6146963757
198 11 2 7.98664822335 7.50897003615 25.7507682751
199 12 1 33.134372009 25.2913409385 27.7620121755
200 12 1 27.9055301403 25.2776882586 25.9795932074
201 12 2 33.2727685963 24.8612043567 28.0832760759
202 12 2 33.3364871824 24.1168634244 28.8011524786
203 12 2 33.1345187818 23.4971920731 29.6065506364
204 12 2 32.6757403127 23.0442795292 30.4176255744
205 12 2 31.9924362448 22.7850153998 31.1520148943
206 12 2 31.1373559559 22.7286387563 31.7343458868
207 12 2 30.1789057674 22.8658960184 32.1031055529
208 12 2 29.1949138907 23.1698843926 32.2162473492
209 12 2 28.2655365937 23.5985039902 32.0550236177
210 12 2 27.4659521715 24.0982951195 31.6256943851
211 12 2 26.8595086454 24.6093109942 30.958956778
212 12 2 26.4919497604 25.0705817222 30.1071470617
213 12 2 26.3872455649 25.4256715486 29.1394703297
214 12 2 26.5454076048 25.627822824 28.1356926441
215 12 2 26.9424878714 25.6442178391 27.1788705725
216 12 2 27.532761598 25.4589700712 26.347780804
217 13 1 10.1131127387 37.8398858444 11.8146472806
218 13 1 7.5275223261 33.3980905236 13.8402749877
219 13 2 9.99940051111 38.315622978 12.0756555124
220 13 2 9.56366106887 39.1378276083 12.5312438085
221 13 2 8.87284010238 39.8026133967 12.9240239746
222 13 2 7.98893436929 40.2436521364 13.2365067682
223 13 2 6.99153978763 40.4150095658 13.4585218376
224 13 2 5.97059648069 40.2953321541 13.5881447226
225 13 2 5.01819097509 39.8897934182 13.6318722633
226 13 2 4.22016276007 39.229622371 13.6040304313
227 13 2 3.64828024743 38.3692570797 13.5254685549
228 13 2 3.35369927264 37.3813827819 13.4216589589
229 13 2 3.36230037717 36.3503068203 13.3203752305
230 13 2 3.67232986627 35.3642742539 13.2491607306
231 13 2 4.25455965359 34.5074245564 13.2328180904
232 13 2 5.05495132314 33.8521225285 13.2911485176
233 13 2 5.99958158645 33.4523624394 13.4371469696
234 13 2 7.00138019275 33.3388465936 13.6758176975
235 14 1 22.5835462731 10.5576639558 19.6507180271
236 14 1 18.1489873127 8.36488977085 22.1092580942
237 14 2 22.610289922 11.1111761082 19.667766854
238 14 2 22.4397735192 12.131948094 19.6187901202
239 14 2 21.991584764 13.0562701659 19.4838621455
240 14 2 21.2998419642 13.8035807424 19.2928940529
241 14 2 20.4208627277 14.3094523667 19.0809048722
242 14 2 19.4280307633 14.5314640973 18.8848296493
243 14 2 18.4051071514 14.4530680633 18.7401529155
244 14 2 17.4385957459 14.0850977585 18.677674367
245 14 2 16.6098585787 13.4647805977 18.7207015551
246 14 2 15.9876999283 12.652344737 18.8829254654
247 14 2 15.6220949932 11.7255294386 19.1671726207
248 14 2 15.5396347868 10.7724993447 19.5651474511
249 14 2 15.7411024371 9.88380850606 20.0581884133
250 14 2 16.2014018068 9.1441466223 20.61896894
251 14 2 16.8718449393 8.62461980209 21.2139881837
252 14 2 17.6845898355 8.37626943143 21.8066245293
253 15 1 37.6656572486 17.4797178994 25.1035513757
254 15 1 38.3430960616 19.1797459253 30.3159378183
255 15 2 37.2977076747 17.0703159329 25.0373340898
256 15 2 36.7330337591 16.2030147845 25.086140833
257 15 2 36.361489584 15.2770048549 25.3652654421
258 15 2 36.2033383763 14.3815878535 25.8619208562
259 15 2 36.2593931645 13.6032770262 26.5434926631
260 15 2 36.5109426729 13.0179117039 27.3605118156
261 15 2 36.9214568046 12.6837447507 28.2511636029
262 15 2 37.4399162621 12.6361329705 29.1469218964
263 15 2 38.0054628202 12.8843144292 29.9787951232
264 15 2 38.5529463902 13.4105664295 30.6836146632
265 15 2 39.0188632763 14.1718208876 31.2097925005
266 15 2 39.3471443682 15.1035898735 31.522023333
267 15 2 39.4942656903 16.125843514 31.6045025559
268 15 2 39.4332154957 17.1503045014 31.46236681
269 15 2 39.155956315 18.0884943342 31.1212257898
270 15 2 38.67415755 18.8597978959 30.6248279889
271 16 1 39.2293299253 27.1537988272 5.55288246196
272 16 1 39.774213986 32.4923675354 4.24109872615
273 16 2 39.3701485086 26.7989285689 5.15086403647
274 16 2 39.4910480375 26.2695809065 4.26846709209
275 16 2 39.4308065378 25.9634627462 3.28048296024
276 16 2 39.2101823181 25.9172061234 2.26922864518
277 16 2 38.8645521436 26.1437573891 1.31914216616
278 16 2 38.4406867378 26.6311971845 0.509086257679
279 16 2 37.9924877567 27.3438268584 -0.0948397580089
280 16 2 37.5760747964 28.2254223041 -0.445324747438
281 16 2 37.2446702425 29.2043586365 -0.518158049297
282 16 2 37.0437481912 30.2001386088 -0.3144362115
283 16 2 37.0068896075 31.1307297215 0.139536956226
284 16 2 37.15272151 31.9200412652 0.794647904294
285 16 2 37.4832191674 32.504859786 1.58344991204
286 16 2 37.9835260587 32.840610822 2.42631067601
287 16 2 38.6233080051 32.9054217473 3.23867058165
288 16 2 39.359518049 32.7021154025 3.93875008608
289 17 1 39.3798840333 22.768807109 16.8685220122
290 17 1 37.3157125667 17.6710033695 16.3493069788
291 17 2 39.00204459 23.1670004285 16.9463745873
292 17 2 38.1932372271 23.813149597 16.9042804913
293 17 2 37.3055982236 24.2730619958 16.6322003632
294 17 2 36.4073885526 24.4960048392 16.1664043922
295 17 2 35.5678326754 24.4528444835 15.5608194485
296 17 2 34.8508089167 24.1387018801 14.8821137941
297 17 2 34.3090271262 23.5733972881 14.2036204478
298 17 2 33.9792243163 22.7996437106 13.5986530775
299 17 2 33.8788161823 21.8791537185 13.1338236547
300 17 2 34.0043097076 20.8870145148 12.8629709516
301 17 2 34.3316215432 19.9048439366 12.8222532808
302 17 2 34.8182731406 19.0133512074 13.0268527618
303 17 2 35.4072625579 18.2849805071 13.4695915115
304 17 2 36.0322600343 17.7773078787 14.1215858888
305 17 2 36.6236537708 17.5277933258 14.9348791616
306 17 2 37.1148948593 17.5503664335 15.8468126344
307 18 1 13.7969626402 2.96085947736 36.1419185422
308 18 1 18.1233791862 6.32895549281 35.4666110847
309 18 2 13.4498170308 3.10534072461 36.5493454475
310 18 2 12.9984231881 3.38757432613 37.4381861554
311 18 2 12.838841899 3.67915269941 38.4194944024
312 18 2 12.9855062356 3.9726469051 39.4022460164
313 18 2 13.4249357997 4.26045338084 40.2952852663
314 18 2 14.1169654252 4.53548698565 41.0156334633
315 18 2 14.9984061253 4.7918267916 41.4960522464
316 18 2 15.9888046003 5.02525576057 41.6911721795
317 18 2 16.9977763404 5.23364511597 41.5816280541
318 18 2 17.9332439324 5.41714837511 41.1758239764
319 18 2 18.7098296695 5.5781873564 40.5091673552
320 18 2 19.2566375016 5.72123143717 39.6408416116
321 18 2 19.5237150204 5.85239018184 38.6484117684
322 18 2 19.486606488 5.97885647143 37.6207546049
323 18 2 19.148581912 6.10825089171 36.6499577769
324 18 2 18.5403389932 6.24792713716 35.8229262725
325 19 1 38.7773160921 12.7217667203 18.3606234359
326 19 1 35.9317728629 9.55242807733 14.8426456989
327 19 2 38.9781815999 13.1903663275 18.1427954213
328 19 2 39.4358949274 13.9217583864 17.5691978471
329 19 2 39.951515129 14.4119399982 16.8159994626
330 19 2 40.4637620753 14.6215235097 15.9401411242
331 19 2 40.9116630999 14.5366970349 15.0097438153
332 19 2 41.2401104955 14.1704833711 14.0978996005
333 19 2 41.4048844335 13.5615530056 13.2760094798
334 19 2 41.3766834837 12.7706994047 12.6072753776
335 19 2 41.143795361 11.8752978509 12.1409394568
336 19 2 40.7131644692 10.9622528936 11.9077958269
337 19 2 40.1097589369 10.120077231 11.9173837434
338 19 2 39.3742948394 9.43082401472 12.1571181302
339 19 2 38.5595250372 8.96260792387 12.5934366753
340 19 2 37.7254308938 8.76339669456 13.1748589465
341 19 2 36.933755135 8.85663898868 13.8366786943
342 19 2 36.2423741639 9.23912711113 14.5068616545
343 20 1 23.9324817896 4.89754213484 13.6335729822
344 20 1 21.0418479834 0.201155121906 13.959420009
345 20 2 23.6424003004 5.35815420941 13.738791015
346 20 2 22.9503059588 6.12813544552 13.7785946527
347 20 2 22.1097284597 6.71379431224 13.6240528426
348 20 2 21.185802227 7.05595109792 13.3035234965
349 20 2 20.2512586988 7.11762065477 12.8604938465
350 20 2 19.3797970513 6.88738349621 12.3496166999
351 20 2 18.639366716 6.38042665261 11.8317289818
352 20 2 18.0859739704 5.63715941399 11.3683066126
353 20 2 17.7585771157 4.7195301313 11.0158611413
354 20 2 17.6755355315 3.70537978976 10.8207888695
355 20 2 17.8329362679 2.68134701113 10.8151419522
356 20 2 18.2049506997 1.73497117491 11.0137069296
357 20 2 18.7461887375 0.946713437837 11.4126569736
358 20 2 19.395836012 0.382622914539 11.9899006929
359 20 2 20.0831969421 0.0883164772503 12.707095704
360 20 2 20.7341384475 0.0848208998342 13.5131434374
361 21 1 26.2874335865 36.3565217911 38.7677281814
362 21 1 26.6060519953 37.8651630927 33.4629685455
363 21 2 26.5313055201 35.8734224775 38.8882400946
364 21 2 26.8609200018 34.8921116975 38.9310589902
365 21 2 27.0138557564 33.8883738122 38.7247317655
366 21 2 26.991809675 32.9543356062 38.2769186224
367 21 2 26.8124277755 32.1757709247 37.6172905589
368 21 2 26.5076968152 31.6242826168 36.794824937
369 21 2 26.1210287831 31.3507761271 35.8733413266
370 21 2 25.7033040133 31.3808196002 34.9256845229
371 21 2 25.3082335786 31.7123134132 34.0270849376
372 21 2 24.9874636697 32.3156815503 33.248301548
373 21 2 24.785868183 33.1365673776 32.6491724055
374 21 2 24.7374585847 34.1007881054 32.273160557
375 21 2 24.8622838568 35.1210963505 32.1433925044
376 21 2 25.164603086 36.1051325029 32.2605502858
377 21 2 25.6324972589 36.9638430565 32.6028093095
378 21 2 26.2389556489 37.6195975987 33.127827607
379 22 1 38.8043463064 4.69182736414 10.2050545483
380 22 1 36.880942954 2.29006854723 14.7930895516
381 22 2 38.7724771052 5.24530921333 10.2001775935
382 22 2 38.489433554 6.24055919661 10.2532231407
383 22 2 37.9431482892 7.10893987235 10.3979208348
384 22 2 37.1876827495 7.77561240537 10.6393117277
385 22 2 36.2961645964 8.18412311857 10.9736235447
386 22 2 35.3541223235 8.30154909471 11.3886145175
387 22 2 34.451689563 8.12149901236 11.8646891879
388 22 2 33.6753896458 7.66469569772 12.3766844823
389 22 2 33.1002492314 6.9770872944 12.8961632581
390 22 2 32.7829598279 6.125659213 13.3940062733
391 22 2 32.7567105135 5.19232858988 13.8430663279
392 22 2 33.0281628397 4.2664777592 14.2206426581
393 22 2 33.5768436493 3.43680729203 14.5105500507
394 22 2 34.3570111498 2.78325117634 14.7045940816
395 22 2 35.3018241556 2.36969104772 14.8033180163
396 22 2 36.3294344832 2.23813354897 14.8159532919
397 23 1 37.3654087977 16.9456328347 13.2332089099
398 23 1 31.9574659773 15.9699218559 12.6674054116
399 23 2 37.5267519003 17.0757154194 13.7474350395
400 23 2 37.6520103766 17.4740794282 14.6956261815
401 23 2 37.5295376709 18.0318617474 15.5601082993
402 23 2 37.1594476976 18.6866205566 16.2726911539
403 23 2 36.5644240232 19.3670748874 16.7790297182
404 23 2 35.7876523198 19.9996016934 17.0435775811
405 23 2 34.8888841068 20.5149463939 17.0528269075
406 23 2 33.9389905591 20.854535244 16.8165396415
407 23 2 33.0135027893 20.9758141748 16.3668577315
408 23 2 32.1857273888 20.856127483 15.7553734773
409 23 2 31.5200647273 20.4947828377 15.0484270298
410 23 2 31.0661390319 19.9131143848 14.3210596638
411 23 2 30.8542752712 19.152538196 13.6501739662
412 23 2 30.8927351152 18.2707773054 13.1075243708
413 23 2 31.1669639066 17.3366004085 12.7531769334
414 23 2 31.6409172786 16.4235537797 12.6300344714
415 24 1 34.9051679029 28.5794869545 1.95232614538
416 24 1 30.165000887 30.7004380358 3.83656982219
417 24 2 35.0784072068 28.1237519639 2.21628703257
418 24 2 35.3663627368 27.4024772751 2.90206720672
419 24 2 35.5708679733 26.9002746326 3.78491494293
420 24 2 35.6567151138 26.6537301876 4.78755950422
421 24 2 35.5995117243 26.6761275299 5.8218109932
422 24 2 35.3879040441 26.9562369243 6.79659862551
423 24 2 35.0246118511 27.4593388706 7.62627158836
424 24 2 34.526180561 28.1303886938 8.23840588326
425 24 2 33.9214731569 28.8990337186 8.58040557985
426 24 2 33.2490394059 29.686025728 8.62429679441
427 24 2 32.5536021504 30.4104442266 8.36927743459
428 24 2 31.8819809409 30.9970721268 7.84179030795
429 24 2 31.2788245588 31.3832515861 7.09311293079
430 24 2 30.7825413995 31.5245951016 6.19468371952
431 24 2 30.42179865 31.3990313122 5.23159057
432 24 2 30.212909351 31.0088167444 4.29481532323
433 25 1 35.0429439883 30.2878008935 10.9743156952
434 25 1 35.4853998797 31.9964504734 16.2090783889
435 25 2 34.5944242064 30.4721312631 10.7055520294
436 25 2 33.6427016332 30.7371088827 10.39336456
437 25 2 32.6190229937 30.8929648774 10.3581372545
438 25 2 31.6152401379 30.9434436372 10.6097756548
439 25 2 30.7213914687 30.9018944054 11.1320382602
440 25 2 30.0174951813 30.7900545309 11.8840168971
441 25 2 29.5662558194 30.6360681667 12.8038653895
442 25 2 29.407348923 30.4719210058 13.814436673
443 25 2 29.5538047092 30.3305248704 14.830314543
444 25 2 29.9908204029 30.2427178878 15.7655991139
445 25 2 30.6771094698 30.2344536771 16.5417363637
446 25 2 31.5486647741 30.3244357466 17.0946781237
447 25 2 32.5245926575 30.5224127183 17.3807198972
448 25 2 33.5144861802 30.8282897679 17.3804844081
449 25 2 34.4266654716 31.2321372672 17.1006877875
450 25 2 35.1765341055 31.7150958435 16.5735274166
451 26 1 27.2543959345 30.1754741465 10.9679287722
452 26 1 27.694114376 24.6705521785 11.1110122425
453 26 2 26.7583860879 30.3741105104 11.1159132817
454 26 2 25.7518523042 30.5879680106 11.2367632847
455 26 2 24.7188964843 30.5708193312 11.1582890343
456 26 2 23.7488552008 30.3123951895 10.9019945113
457 26 2 22.9253305348 29.8244179162 10.505591539
458 26 2 22.3185699692 29.1395329966 10.0195624513
459 26 2 21.9790635185 28.3083335214 9.50255876316
460 26 2 21.932941699 27.3947487621 9.01605524142
461 26 2 22.1795938019 26.4702171889 8.61874664431
462 26 2 22.691723558 25.6071750443 8.36119785111
463 26 2 23.4178371195 24.8724539743 8.28123500849
464 26 2 24.2869365867 24.3211895014 8.40049777837
465 26 2 25.2149912767 23.9917955701 8.7224669406
466 26 2 26.1125968958 23.9024632176 9.23214712911
467 26 2 26.8931245015 24.0495025102 9.89743361954
468 26 2 27.4806164995 24.4076788702 10.672038589
469 27 1 18.3603795376 22.0589699693 10.759343571
470 27 1 17.2789979798 27.430005546 11.4668616425
471 27 2 18.8971794312 21.9349685471 10.6972862624
472 27 2 19.8934235227 21.873777117 10.4194313897
473 27 2 20.8077306095 22.0486966552 9.96457348078
474 27 2 21.5650282215 22.4559322576 9.38655142057
475 27 2 22.1045548828 23.0705140315 8.75043017727
476 27 2 22.3853983571 23.848573035 8.12657030435
477 27 2 22.3902246897 24.7313398138 7.58421476409
478 27 2 22.1268581504 25.6505010794 7.18517761673
479 27 2 21.6275680724 26.5344262833 6.97820983405
480 27 2 20.946127589 27.3146965499 6.99455577857
481 27 2 20.1529123562 27.9323408739 7.24510536347
482 27 2 19.3284859994 28.3432111703 7.71940146606
483 27 2 18.5562569546 28.5220062537 8.38659306659
484 27 2 17.9148760126 28.4645779744 9.19824723626
485 27 2 17.4710675091 28.1883093106 10.0927636692
486 27 2 17.27354758 27.7305299567 11.0009893856
487 28 1 18.0651336521 9.25871819423 28.7337634558
488 28 1 15.4701461347 6.88135276312 24.4755755252
489 28 2 18.0391810672 8.9764235168 29.2102272703
490 28 2 17.7601704022 8.44379793653 30.053976671
491 28 2 17.206237729 7.93203460046 30.7644039316
492 28 2 16.4294660733 7.46963848205 31.2706307936
493 28 2 15.502249639 7.08061486483 31.5203913195
494 28 2 14.510695269 6.78228132497 31.4847957925
495 28 2 13.5467740373 6.58368928045 31.1609639376
496 28 2 12.6999383314 6.48479897856 30.5722874505
497 28 2 12.0489685055 6.47648311922 29.7662979074
498 28 2 11.654792263 6.54135878399 28.8103343887
499 28 2 11.554931258 6.65537184264 27.7854057018
500 28 2 11.7600810977 6.78998942281 26.7788066448
501 28 2 12.2531364657 6.9148006051 25.8761613191
502 28 2 12.9907502265 7.00028829703 25.1536187213
503 28 2 13.9072844006 7.02051963719 24.6709119658
504 28 2 14.920792891 6.95550970621 24.4659137709
505 29 1 21.81022897 20.4162121743 30.1294001783
506 29 1 19.5266251362 16.8791890585 33.7060762987
507 29 2 21.7182356312 20.9517501253 30.2394815877
508 29 2 21.3219512186 21.8833694269 30.4596954665
509 29 2 20.6677008068 22.6508335003 30.697193479
510 29 2 19.8162221717 23.1844736025 30.9495075422
511 29 2 18.8462299145 23.4359334204 31.2128191297
512 29 2 17.8472408363 23.3825766198 31.48230732
513 29 2 16.9114147211 23.0295500864 31.7525882109
514 29 2 16.1251542174 22.4093148013 32.0182056475
515 29 2 15.5612294681 21.578687109 32.2741285364
516 29 2 15.2721453064 20.6136600595 32.5162094164
517 29 2 15.2853555804 19.6024768452 32.7415624882
518 29 2 15.6007608084 18.6375876695 32.9488266477
519 29 2 16.1907172463 17.8072231577 33.1382895467
520 29 2 17.0025565412 17.1873523718 33.3118613744
521 29 2 17.9633863105 16.8347584332 33.4729007486
522 29 2 18.9867340884 16.781862893 33.6259085867
523 30 1 33.974053104 9.96393624017 19.4866633022
524 30 1 34.4755895944 14.4617370374 22.6546658589
525 30 2 33.4691381683 9.73494429867 19.4843858985
526 30 2 32.5481126232 9.31965580937 19.7139451002
527 30 2 31.7206639549 8.96716712512 20.228270328
528 30 2 31.0508906772 8.72512710803 20.9807797285
529 30 2 30.5885196134 8.63111751941 21.9031815974
530 30 2 30.3643734296 8.70922754267 22.9116989863
531 30 2 30.3875612305 8.96785811861 23.9147057471
532 30 2 30.6446482893 9.39895622217 24.8210780109
533 30 2 31.1008805871 9.9787488741 25.5484998846
534 30 2 31.7033525486 10.6699099845 26.0309663253
535 30 2 32.3858292439 11.4249625261 26.2247993227
536 30 2 33.0747835258 12.1906059385 26.1126290337
537 30 2 33.696097832 12.9125743317 25.7049769968
538 30 2 34.1818198036 13.540582677 25.0392971219
539 30 2 34.4763559602 14.0329101529 24.176561867
540 30 2 34.5415388977 14.3602028865 23.195704761
541 31 1 24.0539612647 20.7391580318 3.71362313144
542 31 1 18.7596989265 21.042241969 5.26182127226
543 31 2 24.1509671196 20.8757397575 3.185118747
544 31 2 24.1581027359 20.9788608805 2.15421374258
545 31 2 23.9287485189 20.8889475958 1.14785284529
546 31 2 23.4716096353 20.6288172422 0.255212799476
547 31 2 22.8161532152 20.2368019892 -0.444895002221
548 31 2 22.0099225022 19.7632549626 -0.891207966596
549 31 2 21.1142034136 19.2659606914 -1.04559622153
550 31 2 20.198438493 18.8048682024 -0.896538051941
551 31 2 19.333897408 18.4366268267 -0.460170073279
552 31 2 18.5871809105 18.2094227647 0.221183577808
553 31 2 18.0141503563 18.1585870426 1.08286897542
554 31 2 17.6548360915 18.3033751836 2.04379543695
555 31 2 17.5297887936 18.645212119 3.01382672206
556 31 2 17.6382063325 19.1675623089 3.90199671008
557 31 2 17.9580068819 19.8374369127 4.62480071877
558 31 2 18.4478416192 20.6084006339 5.11380673292
559 32 1 35.199903913 19.6270666773 3.28265540451
560 32 1 36.2302736894 24.3136169512 6.01991237385
561 32 2 35.6474479678 19.3210705402 3.16667147848
562 32 2 36.5678427396 18.9523265588 2.86608646314
563 32 2 37.5321193139 18.8782266193 2.49442815445
564 32 2 38.4628977037 19.1077997239 2.10149331273
565 32 2 39.2858511922 19.6223958887 1.73901799739
566 32 2 39.9364810138 20.3773860397 1.45596196345
567 32 2 40.3659952448 21.3062298334 1.29404611069
568 32 2 40.5457560567 22.3265406316 1.28394973515
569 32 2 40.4698899773 23.347594823 1.44251419332
570 32 2 40.1558232426 24.2786010381 1.77120785745
571 32 2 39.6426934415 25.0369755396 2.25599227742
572 32 2 38.9877822294 25.5558695096 2.86860174789
573 32 2 38.2612942585 25.7902621407 3.56911965181
574 32 2 37.5399582109 25.7210641619 4.30961675339
575 32 2 36.9000331851 25.356857775 5.03851981983
576 32 2 36.4103578823 24.7331144096 5.70531238363
577 33 1 25.9578131175 35.5421376634 36.5768590788
578 33 1 30.3474680503 34.5354565993 33.3775601137
579 33 2 25.5231925971 35.2094374415 36.4885575857
580 33 2 24.7450135976 34.6474705146 36.0985824212
581 33 2 24.0806246888 34.1938166821 35.4457152146
582 33 2 23.5991833501 33.8729508113 34.5862331953
583 33 2 23.3531718786 33.6972445016 33.5952459806
584 33 2 23.3736137683 33.6658384463 32.5598495348
585 33 2 23.6672460018 33.7647207563 31.571187605
586 33 2 24.2159049915 33.9680041062 30.716144212
587 33 2 24.9781821431 34.2402852949 30.0694244043
588 33 2 25.8931981374 34.5398721525 29.6867450922
589 33 2 26.8861519183 34.8225836707 29.5997566006
590 33 2 27.8751386085 35.0457769831 29.8131578264
591 33 2 28.7786149204 35.1722341486 30.3042679467
592 33 2 29.522831609 35.1735544674 31.025093715
593 33 2 30.0485555182 35.0327431289 31.9067039177