LAMMPS input file for bananas

648 atoms

2 atom types

0 67.4746132241 xlo xhi
0 67.4746132241 ylo yhi
0 67.4746132241 zlo zhi

Masses

 1 1
 2 1

Atoms

1 1 1 14.341956085 10.3554255532 35.3468368563
2 1 1 10.9937407809 8.043740479 31.6343981266
3 1 2 14.818265342 10.5532268066 35.1434040478
4 1 2 15.7231339783 10.7098210324 34.6644580482
5 1 2 16.5701099588 10.5841618291 34.0817576757
6 1 2 17.2763174892 10.194994194 33.4317440244
7 1 2 17.7717108539 9.58508011136 32.7569933318
8 1 2 18.0054586035 8.8173010907 32.1023364476
9 1 2 17.9505764924 7.96892694825 31.5107728083
10 1 2 17.6063869079 7.12457319305 31.0195513337
11 1 2 16.99858063 6.36848890341 30.6567754435
12 1 2 16.1768752929 5.77687800102 30.4388416227
13 1 2 15.2104839635 5.41095378599 30.3689449949
14 1 2 14.1818068452 5.31135976419 30.4367881086
15 1 2 13.1789210636 5.49446527038 30.6195194791
16 1 2 12.287553041 5.95087351555 30.8838163447
17 1 2 11.5832651206 6.64627803983 31.1889218082
18 1 2 11.1245685768 7.52458951111 31.4903595484
19 2 1 42.6825337068 11.9536795034 27.4981120148
20 2 1 43.8836762634 6.5910648357 27.1289841081
21 2 2 42.6014834953 12.1418891686 28.013270958
22 2 2 42.3049042743 12.309033923 28.9914333514
23 2 2 41.8552345035 12.2156741349 29.9197540494
24 2 2 41.3067017451 11.8606730834 30.7233611285
25 2 2 40.7225442448 11.2667408552 31.3387494565
26 2 2 40.1692471993 10.4783644754 31.71956875
27 2 2 39.7104830864 9.55775322049 31.8408480848
28 2 2 39.4013083552 8.57916866908 31.7012718245
29 2 2 39.2831454084 7.62215626842 31.3232995318
30 2 2 39.3800072339 6.76429531207 30.7511189332
31 2 2 39.696308786 6.07412811924 30.0466185108
32 2 2 40.2164645925 5.60491287233 29.2837467915
33 2 2 40.9063092634 5.38976949872 28.5417724456
34 2 2 41.7162114321 5.43866101649 27.8980594912
35 2 2 42.5855973144 5.73748547363 27.4210160942
36 2 2 43.4484715932 6.24936124426 27.163859633
37 3 1 6.58388927462 38.7161626736 52.7646066323
38 3 1 5.52136434823 38.1856822339 58.1429210719
39 3 2 6.20987949373 39.0087683572 52.4784609537
40 3 2 5.35762465211 39.4120644117 52.0498442853
41 3 2 4.37113477012 39.6089503359 51.8033246782
42 3 2 3.33593535025 39.5952739843 51.7737715125
43 3 2 2.34199143542 39.3860745198 51.9762791649
44 3 2 1.47550791209 39.0142116959 52.4047912594
45 3 2 0.811072525958 38.5273709165 53.0326526647
46 3 2 0.404857720242 37.9837170377 53.8150389265
47 3 2 0.289500902662 37.4465930401 54.6930417095
48 3 2 0.471129769469 36.9787467503 55.5990378877
49 3 2 0.928803807947 36.6366118069 56.4628529294
50 3 2 1.61642288058 36.4651641213 57.2181568239
51 3 2 2.4669289365 36.4938226314 57.808509608
52 3 2 3.39841789312 36.7337679674 58.1925054811
53 3 2 4.32160463163 37.1769234138 58.3475466603
54 3 2 5.14796072353 37.7966910469 58.2719030131
55 4 1 67.2622526306 59.3749869732 45.3206314165
56 4 1 64.7721601416 56.5494345611 49.3396272973
57 4 2 67.1707759652 59.9217839935 45.3257097921
58 4 2 66.7743385554 60.8782846543 45.3510502163
59 4 2 66.1176824376 61.6770013746 45.4106540305
60 4 2 65.2608443362 62.2488858907 45.5177747076
61 4 2 64.282106191 62.5455641387 45.6813348839
62 4 2 63.2708602948 62.5437452196 45.9051131226
63 4 2 62.3194617993 62.2473442044 46.1873995233
64 4 2 61.5148111758 61.6871253025 46.5211515676
65 4 2 60.9304338331 60.9178979151 46.8946359967
66 4 2 60.6197787808 60.0135211335 47.2924982174
67 4 2 60.6113471184 59.0601719902 47.6971617677
68 4 2 60.9060943555 58.1484910121 48.0904302913
69 4 2 61.4773433236 57.3653209591 48.4551460102
70 4 2 62.273215617 56.785791701 48.7767535391
71 4 2 63.2213599542 56.4664726454 49.0446265083
72 4 2 64.2355465008 56.4402168241 49.2530360851
73 5 1 35.6327025908 4.85189408622 24.8910679974
74 5 1 32.495238076 1.90345689969 28.3261326987
75 5 2 35.721141677 5.37708770564 25.045116502
76 5 2 35.6524773252 6.36200595147 25.3580374616
77 5 2 35.2879868915 7.27126539288 25.6943293929
78 5 2 34.6628457867 8.02018027901 26.0422135165
79 5 2 33.835985943 8.53867916586 26.3888545041
80 5 2 32.8847245728 8.77769144804 26.7215303307
81 5 2 31.8977172346 8.71361980795 27.0287918
82 5 2 30.9668774871 8.35049094955 27.30150606
83 5 2 30.1789995977 7.71958859189 27.5336890002
84 5 2 29.6078478411 6.87660217257 27.7230506617
85 5 2 29.3074333906 5.89655113736 27.8712039519
86 5 2 29.3070915704 4.86694743202 27.9835176385
87 5 2 29.6088081416 3.87981938847 28.0686270235
88 5 2 30.187038314 3.02332397327 28.1376468942
89 5 2 30.9910349784 2.37371188454 28.2031584871
90 5 2 31.9494739579 1.9883778236 28.2780627941
91 6 1 62.5198161957 24.3427533647 34.9247430803
92 6 1 60.1673890666 21.1176497157 38.719664421
93 6 2 62.4636067057 24.8875079603 35.0111356466
94 6 2 62.1312505765 25.8504348207 35.1982440002
95 6 2 61.5325871564 26.6660885649 35.4196245548
96 6 2 60.7240141588 27.2612196801 35.6740394413
97 6 2 59.7810611163 27.5826777789 35.957239938
98 6 2 58.7915053808 27.6022558932 36.2623537119
99 6 2 57.8473718206 27.3192613458 36.5805111851
100 6 2 57.0365453839 26.7605788831 36.901653936
101 6 2 56.4347609886 25.9782203148 37.2154514554
102 6 2 56.0987008037 25.0445839941 37.5122427016
103 6 2 56.0608280583 24.0458562041 37.783916638
104 6 2 56.3264282409 23.0741558691 38.0246514987
105 6 2 56.873127363 22.2191385463 38.2314454024
106 6 2 57.6529311953 21.5598249361 38.4043899533
107 6 2 58.5965996121 21.1573986875 38.5466618921
108 6 2 59.6199573545 21.0496299275 38.6642335576
109 7 1 61.2644473676 50.7219937701 57.0960399915
110 7 1 58.5413575084 47.6316751214 60.7527252659
111 7 2 61.2427465649 51.2684590084 57.1870650988
112 7 2 60.9707465983 52.2503582125 57.3730442432
113 7 2 60.4216803675 53.1036306978 57.5807714953
114 7 2 59.6467250607 53.7512789638 57.8103238141
115 7 2 58.7176461067 54.1350467482 58.0597889536
116 7 2 57.7202562477 54.220728685 58.3254397508
117 7 2 56.746594297 54.0012878899 58.6020738309
118 7 2 55.8865364314 53.4974973233 58.883487768
119 7 2 55.2196045945 52.756046478 59.1630424852
120 7 2 54.8077186162 51.8452859516 59.4342683606
121 7 2 54.6895526452 50.8489977584 59.6914548894
122 7 2 54.8770102652 49.8587591733 59.9301711567
123 7 2 55.354139565 48.9655960906 60.1476696853
124 7 2 56.078587046 48.2516866382 60.3431368497
125 7 2 56.9854578527 47.7828712049 60.5177670319
126 7 2 57.9932304943 47.6026515395 60.674653762
127 8 1 58.811329275 21.0609482868 29.0888718266
128 8 1 54.6987419876 19.3027458752 32.3032123516
129 8 2 58.6587342168 21.3925311515 28.6715610267
130 8 2 58.2166793921 21.8419118132 27.8497685809
131 8 2 57.5952288559 22.0437661652 27.0461814216
132 8 2 56.8373914805 21.9901807635 26.3422571441
133 8 2 55.9986068639 21.696523746 25.8103697556
134 8 2 55.1416923898 21.2000441326 25.5072132801
135 8 2 54.3311178543 20.5564768322 25.4686344872
136 8 2 53.6271294856 19.834962788 25.7063657048
137 8 2 53.0802589138 19.1117472543 26.2069554975
138 8 2 52.7267175589 18.4632305646 26.9329946733
139 8 2 52.5850962083 17.9590047651 27.8265258743
140 8 2 52.654670594 17.6555107763 28.8143259931
141 8 2 52.9154674044 17.5908941906 29.8145799567
142 8 2 53.3300847153 17.7815285629 30.7443376093
143 8 2 53.8471009181 18.2205230732 31.527074051
144 8 2 54.4057614476 18.8783505776 32.0996643568
145 9 1 66.1168532688 30.311781446 30.635719799
146 9 1 63.4675548486 29.1649508368 35.3264161612
147 9 2 66.2144575182 30.8501164642 30.5460004017
148 9 2 66.1676394815 31.877883289 30.4268295311
149 9 2 65.8313004395 32.85693713 30.3947687083
150 9 2 65.2403474381 33.704150104 30.4702869038
151 9 2 64.4528938397 34.348410719 30.6640479979
152 9 2 63.5449626893 34.7371051988 30.9759388416
153 9 2 62.6035577342 34.8409128686 31.3950795691
154 9 2 61.7187336301 34.6564785329 31.900815223
155 9 2 60.9753880756 34.2067182787 32.464598312
156 9 2 60.4455239697 33.5387308316 33.0525907192
157 9 2 60.1816868409 32.7195048294 33.6287478141
158 9 2 60.2121756829 31.8298132676 34.158103674
159 9 2 60.5384636947 30.9568515941 34.6099579878
160 9 2 61.1350640093 30.1862904421 34.960674179
161 9 2 61.9518526465 29.5944673396 35.1958337176
162 9 2 62.9186369702 29.2414290667 35.31155027
163 10 1 55.2509430251 44.1284108293 46.0855427138
164 10 1 58.8069835616 42.4492895722 49.9419351257
165 10 2 54.7244081268 43.9758196123 46.1683537819
166 10 2 53.8354071036 43.4774214038 46.3526759932
167 10 2 53.1389861902 42.7442157195 46.5765188108
168 10 2 52.6970109756 41.8448911226 46.8383803203
169 10 2 52.5481560679 40.8632767762 47.1332934642
170 10 2 52.7043801688 39.8907019899 47.4532787552
171 10 2 53.1498361202 39.0176721794 47.7880715516
172 10 2 53.8423152635 38.3256199184 48.1260576092
173 10 2 54.7170944701 37.8794829176 48.4553316399
174 10 2 55.6928352104 37.721785398 48.764782397
175 10 2 56.6789970032 37.8687622991 49.0451053895
176 10 2 57.5840895597 38.3088795763 49.2896509223
177 10 2 58.3240114963 39.0038854491 49.4950301705
178 10 2 58.829715599 39.8922967893 49.6614240474
179 10 2 59.0535020034 40.8950028862 49.7925667159
180 10 2 58.9733657105 41.9224758458 49.8954052444
181 11 1 52.9576657828 13.569623603 17.7443967649
182 11 1 49.1998442959 17.2781109823 19.3136430673
183 11 2 53.4289501366 13.7822060128 17.544195545
184 11 2 54.1636573963 14.306506633 17.0362463612
185 11 2 54.6528097363 14.9661686824 16.405156637
186 11 2 54.8543981349 15.7161169863 15.7198552945
187 11 2 54.752623052 16.5030473971 15.0542122729
188 11 2 54.359334449 17.2702851016 14.4803057904
189 11 2 53.7129517459 17.9629501418 14.0618529086
190 11 2 52.8749621548 18.5329593468 13.8484021592
191 11 2 51.9243165418 18.9434087841 13.8708175348
192 11 2 50.9502335972 19.1719373 14.1384654482
193 11 2 50.0440681633 19.2127645857 14.6383610476
194 11 2 49.290984867 19.0772180125 15.3363516968
195 11 2 48.7621959478 18.7927002196 16.1802297541
196 11 2 48.5084707506 18.4001915518 17.1044909407
197 11 2 48.5555084478 17.9505149816 18.0363046068
198 11 2 48.9015957363 17.4997039437 18.9021517457
199 12 1 49.580769744 59.3870593876 4.67087218246
200 12 1 49.8436401976 56.6904661502 9.46627820943
201 12 2 49.3948983959 59.9083559241 4.70377377366
202 12 2 48.8729029594 60.7837036175 4.88812520718
203 12 2 48.1731641251 61.4661917274 5.23057785298
204 12 2 47.3674840547 61.8995345472 5.71616192998
205 12 2 46.5373207273 62.0501542551 6.31686220847
206 12 2 45.7663636031 61.9102413026 6.99417140623
207 12 2 45.1329059025 61.4984662015 7.70259986327
208 12 2 44.7027087165 60.8582778342 8.39382161251
209 12 2 44.5230073335 60.0539433865 9.02107896027
210 12 2 44.6182060671 59.164690834 9.54344412954
211 12 2 44.9876539699 58.2774878553 9.92954954624
212 12 2 45.6057041629 57.4791153244 10.1604467785
213 12 2 46.4240513731 56.8482578291 10.2313335564
214 12 2 47.3761346273 56.44833211 10.1519914657
215 12 2 48.3832038291 56.3217070599 9.94589442384
216 12 2 49.3614972897 56.4858420891 9.64806919278
217 13 1 24.2513992572 27.1673502101 40.6644229416
218 13 1 19.1782988629 27.172661223 42.8092444048
219 13 2 24.6636848059 27.1781147799 41.0349435239
220 13 2 25.3125610282 27.37869542 41.8168804307
221 13 2 25.7464168098 27.7873985793 42.6638923311
222 13 2 25.9188624493 28.3556191667 43.5124712234
223 13 2 25.8073339876 29.0202131713 44.2989662853
224 13 2 25.4151497579 29.709252806 44.9653852097
225 13 2 24.7712079424 30.348582232 45.4646798066
226 13 2 23.9273527013 30.8685763552 45.7650341222
227 13 2 22.9536489327 31.2104866764 45.8527642458
228 13 2 21.9319963381 31.3317958136 45.7335655037
229 13 2 20.9486648253 31.2100926706 45.4319933697
230 13 2 20.0864315985 30.8451150542 44.9892254019
231 13 2 19.4170365833 30.2587735718 44.4593081907
232 13 2 18.9946438246 29.4931546292 43.9042313823
233 13 2 18.8509048048 28.6066845437 43.3882777479
234 13 2 18.9920736287 27.6688043858 42.9721642496
235 14 1 61.7255020507 50.2124359295 14.1327372524
236 14 1 59.6222977569 46.7838935818 10.369990384
237 14 2 61.6115156363 50.0824701324 14.6595168462
238 14 2 61.1774740997 49.8263505167 15.5643422206
239 14 2 60.4928779063 49.5574826137 16.2935447809
240 14 2 59.621360195 49.2813566497 16.7802783856
241 14 2 58.6435907194 49.0041243736 16.9797962763
242 14 2 57.649923353 48.732038367 16.8735294377
243 14 2 56.7321609529 48.4708821646 16.470779036
244 14 2 55.9751881592 48.225443124 15.8078686815
245 14 2 55.4492347416 47.9990760915 14.9448337806
246 14 2 55.2034746376 47.7933976304 13.9599497199
247 14 2 55.2615440852 47.6081386829 12.9425976015
248 14 2 55.6193873419 47.4411690923 11.9851177685
249 14 2 56.2456263376 47.2886917524 11.1743936156
250 14 2 57.0844205709 47.1455886878 10.5839327633
251 14 2 58.0605565879 47.0058875221 10.2671673427
252 14 2 59.0863031725 46.8633058193 10.2525840224
253 15 1 40.6379193428 23.0414077628 3.7269225
254 15 1 37.7467513423 19.4533012752 6.74408579589
255 15 2 40.3760239573 23.5160178668 3.61057471174
256 15 2 39.713566419 24.2590129774 3.32455627404
257 15 2 38.8720488781 24.7591290497 2.98628062656
258 15 2 37.9188722722 24.9741320212 2.64287656233
259 15 2 36.9316144971 24.8877739337 2.34194029444
260 15 2 35.9909597135 24.5112738233 2.12719738748
261 15 2 35.173344539 23.8822951823 2.03451747216
262 15 2 34.5439913743 23.0615131902 2.08864497438
263 15 2 34.1509638286 22.1270845866 2.30094383045
264 15 2 34.0207860515 21.1675242208 2.66836174221
265 15 2 34.1560252381 20.27363753 3.1737083731
266 15 2 34.5350576468 19.5302442458 3.78722212947
267 15 2 35.1140394557 19.008447658 4.46928272575
268 15 2 35.8309028257 18.7591540366 5.17402230194
269 15 2 36.6110129587 18.8084328746 5.85350596444
270 15 2 37.3739705479 19.1551408324 6.46210072309
271 16 1 56.7508788993 59.5952939775 35.2659866947
272 16 1 51.5170266438 60.9749803058 34.2462361714
273 16 2 56.8749077777 59.061901554 35.1794412645
274 16 2 56.9161507989 58.0274157513 35.1505205382
275 16 2 56.6987516958 57.0234428228 35.2827107793
276 16 2 56.2323297298 56.1376661834 35.5483205794
277 16 2 55.5492008889 55.4469964669 35.9074982519
278 16 2 54.701432507 55.0105616484 36.3118640403
279 16 2 53.7560976831 54.8643179354 36.7089196011
280 16 2 52.7891620289 55.0177726056 37.0468328679
281 16 2 51.8785599234 55.4531174839 37.2791621889
282 16 2 51.0970913288 56.1268520353 37.369089165
283 16 2 50.5057865734 56.9737481406 37.2927743948
284 16 2 50.1483438551 57.9127951921 37.041530272
285 16 2 50.0471464508 58.8545836553 36.6226128016
286 16 2 50.2012226334 59.7094541347 36.0585602645
287 16 2 50.586334239 60.395669213 35.3851390081
288 16 2 51.1571858086 60.8468632566 34.6480835885
289 17 1 26.051717499 27.5743598447 39.202459469
290 17 1 20.6645956115 26.4519763094 39.4386964183
291 17 2 26.1853575456 28.0271454299 38.91175979
292 17 2 26.2980193085 28.775191066 38.2043466685
293 17 2 26.2122272683 29.3465049426 37.3447313758
294 17 2 25.9216437995 29.7008915111 36.4159312473
295 17 2 25.4385966112 29.8179266599 35.5072693415
296 17 2 24.7929551612 29.698819232 34.7062332563
297 17 2 24.0294082594 29.3663008474 34.0905012337
298 17 2 23.2033909891 28.8625540712 33.7208623211
299 17 2 22.3760321795 28.2453677629 33.6356758658
300 17 2 21.608582932 27.5828700173 33.8473753243
301 17 2 20.9568340021 26.9473187562 34.3413350371
302 17 2 20.4660308544 26.408515914 35.077203258
303 17 2 20.1667498493 26.0274454701 35.9925799389
304 17 2 20.0721114167 25.8507151772 37.008704066
305 17 2 20.1765842191 25.9063085842 38.0376321868
306 17 2 20.4564892953 26.2010345276 38.9902538524
307 18 1 43.7463661285 41.4167265588 46.4257908104
308 18 1 40.1305554023 45.4680254794 45.5040941278
309 18 2 44.1817597903 41.5565385944 46.7392644227
310 18 2 45.0115632669 41.9978468492 47.1744327644
311 18 2 45.7892579991 42.6468065297 47.3906282954
312 18 2 46.4358931223 43.4557988547 47.38099987
313 18 2 46.8844629566 44.3626191647 47.1592786479
314 18 2 47.0860141151 45.2961464499 46.7585265932
315 18 2 47.0141072698 46.182825543 46.2281231029
316 18 2 46.6672269149 46.953371168 45.6292644132
317 18 2 46.0689194946 47.5490828186 45.0293859828
318 18 2 45.2656473064 47.9271949063 44.4960162125
319 18 2 44.3225537811 48.0647745509 44.0906216947
320 18 2 43.3175261058 47.9608117555 43.8630049552
321 18 2 42.3340963407 47.6363114604 43.8467652939
322 18 2 41.4538280445 47.1323790869 44.0562364394
323 18 2 40.7488823154 46.5064740603 44.4851801277
324 18 2 40.2754408017 45.8271727766 45.1073546773
325 19 1 31.5260393748 55.8346593002 46.7566294627
326 19 1 31.5310924234 50.7225002872 48.8066147357
327 19 2 31.2690993148 56.2135061052 47.069419577
328 19 2 30.6148481659 56.7631874235 47.6546581211
329 19 2 29.7915792911 57.0593802088 48.2089111903
330 19 2 28.8793325003 57.0696059181 48.6992167059
331 19 2 27.9662573303 56.7874499469 49.0984409698
332 19 2 27.1405788191 56.2331462762 49.3877517159
333 19 2 26.4825563984 55.4517332839 49.5583345416
334 19 2 26.0571687967 54.5089488056 49.6121962801
335 19 2 25.9081916738 53.4852385813 49.5619820917
336 19 2 26.0542077694 52.4684241782 49.4298229435
337 19 2 26.4869132138 51.5456986563 49.2453185243
338 19 2 27.1718743689 50.7956795194 49.0428394351
339 19 2 28.0516662177 50.2812432685 48.8583945451
340 19 2 29.0511062617 50.0437946393 48.7263490297
341 19 2 30.0841068894 50.0994928454 48.6762922206
342 19 2 31.0615216723 50.4377787757 48.7303407412
343 20 1 42.6935560917 10.4316900997 19.1169076336
344 20 1 40.8053051321 6.23581576822 22.144411859
345 20 2 42.6386163437 10.9324828555 19.3483573936
346 20 2 42.3134872858 11.7989254255 19.8134021653
347 20 2 41.7294301678 12.5031252149 20.2988691679
348 20 2 40.9434911426 12.9771152064 20.7787979206
349 20 2 40.0311165147 13.1739104275 21.227732716
350 20 2 39.0792763273 13.0717903086 21.6230427335
351 20 2 38.1785376383 12.6762783638 21.9469846833
352 20 2 37.4148099548 12.0196387607 22.1883199858
353 20 2 36.8615151699 11.1579356627 22.3433390907
354 20 2 36.5728956607 10.1659233646 22.4161995775
355 20 2 36.5790704676 9.1302329517 22.4185472204
356 20 2 36.8832901504 8.14147646971 22.3684545559
357 20 2 37.4616405216 7.28598825846 22.288773695
358 20 2 38.2652222612 6.63795616859 22.2050535098
359 20 2 39.2246077539 6.25265984758 22.1432110293
360 20 2 40.2561689409 6.16143237897 22.1271692797
361 21 1 65.996724986 19.1083989585 58.4836744945
362 21 1 62.3591300934 23.1670474787 57.6887465017
363 21 2 65.8112077224 18.6816432514 58.7850773196
364 21 2 65.3982928029 18.0535405842 59.4975986034
365 21 2 64.9174125707 17.6936544337 60.3413606741
366 21 2 64.3944285277 17.6332523933 61.2332897943
367 21 2 63.8590396492 17.876306133 62.0859221297
368 21 2 63.3420755264 18.399129409 62.8153754791
369 21 2 62.8726864602 19.1525369025 63.3489945608
370 21 2 62.4756866115 20.066327124 63.6319730444
371 21 2 62.16929236 21.0556807982 63.6323487713
372 21 2 61.9634620066 22.0288915589 63.3439168867
373 21 2 61.8589881425 22.8957243558 62.7867953695
374 21 2 61.8474254096 23.575639761 62.0055914166
375 21 2 61.9118602372 24.0051345848 61.0653358022
376 21 2 62.0284523981 24.1435297571 60.0455557694
377 21 2 62.1686078818 23.9766779449 59.0330266664
378 21 2 62.3015850424 23.518252985 58.1138629693
379 22 1 38.7063155442 50.3184927833 42.5538978879
380 22 1 35.4949255195 47.1596456656 45.723329055
381 22 2 38.5336687371 50.8415969676 42.4911615828
382 22 2 38.0064146387 51.7164119371 42.3196968465
383 22 2 37.2506452736 52.3916953175 42.1063818351
384 22 2 36.328594571 52.8098617361 41.888075584
385 22 2 35.3176518638 52.9367602686 41.702092046
386 22 2 34.3033083819 52.7647870615 41.58279918
387 22 2 33.3713653124 52.3135783713 41.5584865476
388 22 2 32.6001136095 51.6282208544 41.6487869132
389 22 2 32.0531983115 50.7751422273 41.8628868521
390 22 2 31.7738177312 49.8360568358 42.1986894575
391 22 2 31.7807862261 48.9005179525 42.6430054589
392 22 2 32.0668193988 48.0577556103 43.1727553336
393 22 2 32.59919802 47.3885438964 43.7570728473
394 22 2 33.3227501613 46.957838948 44.3601182993
395 22 2 34.1648797391 46.808858646 44.944345066
396 22 2 35.0421831492 46.9591436011 45.4739217176
397 23 1 61.7154152314 20.3313331934 34.5302081838
398 23 1 57.5235749697 19.2614531435 37.9390887663
399 23 2 62.1546677093 20.5738589686 34.7660455443
400 23 2 62.8137980884 21.17524794 35.2919511629
401 23 2 63.2114654858 21.913037939 35.9004121966
402 23 2 63.312118707 22.7111128 36.5528259582
403 23 2 63.1072773634 23.4878618054 37.2065837709
404 23 2 62.6163048014 24.1636179433 37.8189544565
405 23 2 61.8846432663 24.6679190091 38.3509789898
406 23 2 60.9796721529 24.9459297526 38.7710213467
407 23 2 59.9845668362 24.963439735 39.0576519106
408 23 2 58.9907178054 24.7099813757 39.201600635
409 23 2 58.0894010482 24.199784001 39.206601945
410 23 2 57.3634588699 23.4704769378 39.0890543698
411 23 2 56.8797493852 22.5796598592 38.8765259295
412 23 2 56.6830528597 21.5996529687 38.6052414984
413 23 2 56.7919902955 20.6109055097 38.3167811571
414 23 2 57.1973262545 19.6946633686 38.0542904521
415 24 1 8.28281581025 66.8720397683 51.0464930577
416 24 1 4.2497171103 65.7217459398 47.4761185799
417 24 2 8.70430742868 66.5118790276 51.0496248554
418 24 2 9.31996567336 65.6793813485 51.0743394474
419 24 2 9.66516315477 64.7033984478 51.105872722
420 24 2 9.71013567474 63.6688024729 51.1228112103
421 24 2 9.45248248196 62.6658077513 51.105071658
422 24 2 8.91738508402 61.7817483726 51.0357314765
423 24 2 8.15531212561 61.0931182856 50.9025711208
424 24 2 7.2374195176 60.6585993987 50.6991878171
425 24 2 6.24906506358 60.5137131271 50.4255791319
426 24 2 5.28202868134 60.6675828585 50.0881431938
427 24 2 4.42614729256 61.1021024192 49.699095548
428 24 2 3.76112680339 61.7735863281 49.2753557927
429 24 2 3.3492774575 62.616751428 48.8370054744
430 24 2 3.22983468465 63.5506669985 48.4054577918
431 24 2 3.41538306024 64.4861310358 48.0015059304
432 24 2 3.89070930751 65.3338004041 47.6434279057
433 25 1 50.3671026444 14.2640462397 65.1897716302
434 25 1 51.0636907734 10.52812238 61.2030094326
435 25 2 50.8158059501 14.5667807719 65.3097628718
436 25 2 51.7594035409 14.9223411387 65.5461918956
437 25 2 52.7701251447 14.9796300279 65.7649568243
438 25 2 53.7633829998 14.7361453528 65.9288235911
439 25 2 54.6561810457 14.2167984747 66.0055617206
440 25 2 55.3746794447 13.4716437036 65.9708819151
441 25 2 55.8609245768 12.5713161907 65.8106498578
442 25 2 56.0781311149 11.6005940188 65.5221744588
443 25 2 56.0140347554 10.6506712611 65.1144531298
444 25 2 55.6820100249 9.81084626691 64.6073517311
445 25 2 55.1198512843 9.16038272918 64.0297939352
446 25 2 54.3863280316 8.76128534242 63.4171250322
447 25 2 53.5558284652 8.65264849986 62.8078904488
448 25 2 52.7115795095 8.84709310756 62.2403225969
449 25 2 51.9380612517 9.32961627534 61.7488562517
450 25 2 51.3133071606 10.0589587274 61.3609900578
451 26 1 39.6267270442 20.7304985831 23.2041796428
452 26 1 36.4602183907 16.9459988292 25.6511000514
453 26 2 39.5895694482 21.2413912801 23.4162850808
454 26 2 39.2888921899 22.1599721369 23.7884418582
455 26 2 38.711555604 22.9553149791 24.1152606169
456 26 2 37.9087632369 23.5512501528 24.3856010599
457 26 2 36.9522673835 23.8897826458 24.5934705016
458 26 2 35.9278293579 23.9363779354 24.73857006
459 26 2 34.9274029373 23.6831095736 24.8263218974
460 26 2 34.0407534057 23.1493816282 24.8673750277
461 26 2 33.3472760637 22.3801601354 24.8766347318
462 26 2 32.9087598913 21.4418747533 24.8719040436
463 26 2 32.7637559059 20.4163641547 24.8722611252
464 26 2 32.9240635015 19.3934169928 24.8963204232
465 26 2 33.3736550145 18.462588281 24.9605360899
466 26 2 34.0701365358 17.7050370677 25.0777023
467 26 2 34.9486118247 17.1861293452 25.2557871488
468 26 2 35.9275971564 16.9494803879 25.4972064158
469 27 1 59.9496180068 4.48611313013 57.3537826993
470 27 1 57.5459457115 3.5827227107 62.2264493382
471 27 2 59.6608517741 4.80535378008 57.004382897
472 27 2 58.946087242 5.25376104127 56.4037658286
473 27 2 58.0552943657 5.48538651225 55.9288595601
474 27 2 57.0622219819 5.49204342197 55.634816711
475 27 2 56.0499410029 5.28604934129 55.5603054402
476 27 2 55.1032730731 4.89910352094 55.7239851084
477 27 2 54.3010596569 4.37939772206 56.1228056052
478 27 2 53.7089761806 3.78722386762 56.7322853459
479 27 2 53.3735461669 3.18947884703 57.5087425999
480 27 2 53.3179009351 2.65356732327 58.3932767812
481 27 2 53.5396713398 2.24125826003 59.3171368329
482 27 2 54.0112037024 2.00305510417 60.2079874145
483 27 2 54.6820802542 1.97359274276 60.9965017723
484 27 2 55.4837143704 2.16848077061 61.6226803981
485 27 2 56.3356017707 2.58288078273 62.0413195725
486 27 2 57.1526579324 3.19194736174 62.226131374
487 28 1 31.2160778673 61.4304737934 7.96460264643
488 28 1 28.1281377005 57.7525666463 10.6616861584
489 28 2 31.4273971108 61.8357595114 8.2783994211
490 28 2 31.6001315491 62.6141883899 8.93939077198
491 28 2 31.4750949104 63.3498023256 9.65767779523
492 28 2 31.0681100523 63.966135229 10.3837599865
493 28 2 30.4206974794 64.3975926592 11.0674263653
494 28 2 29.5962910345 64.5954303071 11.6623318618
495 28 2 28.6744563379 64.532196705 12.1302213517
496 28 2 27.7436389273 64.2042352397 12.4444163492
497 28 2 26.8931030531 63.6320174277 12.5922465675
498 28 2 26.2047958542 62.8582770769 12.5762047291
499 28 2 25.7458784378 61.944115393 12.4137193705
500 28 2 25.5626046054 60.9634320234 12.1355663515
501 28 2 25.6761051354 59.9961896111 11.7830638459
502 28 2 26.080461858 59.1211257478 11.4043064733
503 28 2 26.7432470555 58.4085765829 11.0497818047
504 28 2 27.6084790265 57.9140661648 10.7677687662
505 29 1 34.216575582 20.4173871321 5.35201030854
506 29 1 37.9583716867 22.9329439782 8.51548475799
507 29 2 33.705129192 20.6298068704 5.37811005196
508 29 2 32.7825252772 21.0074124065 5.65902702639
509 29 2 31.9795861873 21.3455647691 6.21906280079
510 29 2 31.3731451401 21.6321191733 7.00824852088
511 29 2 31.0221259041 21.8596336344 7.95572988589
512 29 2 30.9621723008 22.0260472537 8.97622503231
513 29 2 31.202399515 22.1348680551 9.97779739106
514 29 2 31.7245633079 22.1948532535 10.8702350754
515 29 2 32.4847228547 22.2192110936 11.573273076
516 29 2 33.4172456491 22.2243970099 12.0239088659
517 29 2 34.4407894568 22.2286138263 12.1821446496
518 29 2 35.4657161021 22.2501526935 12.034632887
519 29 2 36.402261373 22.3057259758 11.5958928308
520 29 2 37.1687164141 22.4089440341 10.9069871961
521 29 2 37.6988749279 22.5690747348 10.031779575
522 29 2 37.9480674257 22.7901987467 9.0511137086
523 30 1 27.4289275264 44.5973684858 58.1904088583
524 30 1 25.0065116018 41.230379243 61.8142078944
525 30 2 27.3349365973 45.1376760091 58.2717368186
526 30 2 26.9343463028 46.079017798 58.4332958593
527 30 2 26.2747722682 46.8576660689 58.6104038324
528 30 2 25.4167505845 47.4038008729 58.8059385791
529 30 2 24.4389044853 47.6687942694 59.0210984665
530 30 2 23.4307783782 47.6296424295 59.2552931648
531 30 2 22.4846764859 47.2910622774 59.5061974516
532 30 2 21.6872499492 46.6850615751 59.76996314
533 30 2 21.1115991695 45.8680216341 60.0415698148
534 30 2 20.8106112086 44.9155585458 60.3152824083
535 30 2 20.8121394952 43.9156312929 60.5851739129
536 30 2 21.1164651765 42.9605248912 60.8456655872
537 30 2 21.6962714929 42.1384392435 61.0920354196
538 30 2 22.4991335138 41.5254503226 61.3208485078
539 30 2 23.4522963103 41.1785763683 61.5302701263
540 30 2 24.4693060684 41.1305810657 61.720232949
541 31 1 4.94420773041 57.3906286528 48.3640341157
542 31 1 1.70625646674 61.7412533387 49.3254764611
543 31 2 5.35406543914 57.4778183091 48.0009977896
544 31 2 5.9466791141 57.7273999203 47.1890764124
545 31 2 6.27208320155 58.0842257536 46.2728418487
546 31 2 6.30599340675 58.5335061463 45.340267188
547 31 2 6.05069310383 59.0520248365 44.4808148076
548 31 2 5.53482522186 59.6102549662 43.7772824901
549 31 2 4.81078163827 60.1750502519 43.2982569736
550 31 2 3.94992801842 60.7126660411 43.0918627405
551 31 2 3.03609932449 61.1918349062 43.1813758008
552 31 2 2.15795883346 61.5866164559 43.5631022436
553 31 2 1.40091708729 61.8787616242 44.2067149115
554 31 2 0.839347307621 62.0593759475 45.0580175133
555 31 2 0.529806786522 62.1297302341 46.0438842443
556 31 2 0.505882077081 62.1011447388 47.0789247018
557 31 2 0.775127809365 61.9939573989 48.0732666354
558 31 2 1.31837813769 61.8356701713 48.9407471859
559 32 1 43.0285240843 21.8270133698 17.2573024276
560 32 1 39.6543704623 18.97026712 20.5422260381
561 32 2 42.9762323692 22.3781028276 17.2880715298
562 32 2 42.6499033502 23.3606606361 17.3161392209
563 32 2 42.0510615394 24.2056901555 17.3195842449
564 32 2 41.231320759 24.8387109121 17.3167477575
565 32 2 40.2624282573 25.2045655774 17.326543431
566 32 2 39.2297254399 25.2724471806 17.3667336031
567 32 2 38.2243695849 25.0387069524 17.452310361
568 32 2 37.3350254822 24.5271868854 17.594129116
569 32 2 36.6397842461 23.7870467004 17.7979192069
570 32 2 36.1990458453 22.888283274 18.0637617101
571 32 2 36.0500140599 21.9153509041 18.3860820501
572 32 2 36.2033056121 20.9594638791 18.7541580839
573 32 2 36.6419825245 20.1102829212 19.1530973504
574 32 2 37.3230959008 19.447743226 19.5651944167
575 32 2 38.1816004232 19.0347689179 19.9715446066
576 32 2 39.1362827873 18.9115379471 20.3537670323
577 33 1 20.1721988794 29.3154617305 37.2268700458
578 33 1 23.4039785311 28.0557521004 32.94839288
579 33 2 20.3685823723 29.7112537777 37.5617773923
580 33 2 20.9304289746 30.3190357583 38.1843749595
581 33 2 21.7064853275 30.7176676498 38.7425213769
582 33 2 22.6339753788 30.8828145601 39.1728549381
583 33 2 23.6363209329 30.8114221522 39.4236632019
584 33 2 24.6301212286 30.5219950264 39.4595962275
585 33 2 25.532754346 30.0529101524 39.2648884785
586 33 2 26.2699076287 29.4589190722 38.8447957441
587 33 2 26.7823507726 28.8061576719 38.2251161095
588 33 2 27.0313342622 28.1661183493 37.4498386375
589 33 2 27.0021211232 27.6091339724 36.577134067
590 33 2 26.7053300965 27.1979675199 35.6740529489
591 33 2 26.175967813 26.9820916667 34.8104144482
592 33 2 25.4702381791 26.9931796884 34.0524428057
593 33 2 24.6604197762 27.2422186595 33.4567314526
594 33 2 23.828278163 27.718508057 33.0650849073