LAMMPS input file for bananas

4320 atoms

2 atom types

0 80.0 xlo xhi
0 80.0 ylo yhi
0 80.0 zlo zhi

Masses

 1 1
 2 1

Atoms

1 1 1 42.8698782596 40.2590346473 78.3474767885
2 1 1 46.639219526 44.1300475014 77.1962526736
3 1 2 42.9709454404 39.7612115364 78.1253525816
4 1 2 43.1868324539 38.9545923436 77.5119943776
5 1 2 43.4364957062 38.3719157935 76.6924784781
6 1 2 43.7162697232 38.06503732 75.743267167
7 1 2 44.0197445152 38.0606740994 74.7526441186
8 1 2 44.33834983 38.3579698514 73.8126675761
9 1 2 44.6621363087 38.9285728863 73.0107794892
10 1 2 44.9806823433 39.7192202863 72.4218354139
11 1 2 45.2840439782 40.6565926779 72.1012816288
12 1 2 45.5636612751 41.6539970966 72.0801013547
13 1 2 45.8131385289 42.6192688192 72.3619907171
14 1 2 46.0288272187 43.4631719317 72.9230218544
15 1 2 46.2101585609 44.1075329447 73.7138238779
16 1 2 46.3596953525 44.4923660978 74.664082897
17 1 2 46.4828983786 44.5813409014 75.6889509421
18 1 2 46.5876286767 44.3650935635 76.6967796303
19 2 1 60.0204514152 74.2828044027 40.7023878195
20 2 1 56.3181873672 71.8318512863 43.9893409377
21 2 2 59.8142390537 74.6768723249 40.3713764561
22 2 2 59.2715502659 75.2472515425 39.6978733463
23 2 2 58.557683047 75.5637900101 39.0169570493
24 2 2 57.724784728 75.6060129841 38.4021826014
25 2 2 56.8358520066 75.3784488451 37.9210763858
26 2 2 55.9589889664 74.9102163478 37.6289812839
27 2 2 55.1611995721 74.2523705246 37.5640123191
28 2 2 54.5022804367 73.4732491557 37.7435825745
29 2 2 54.0293705201 72.6522439632 38.1628160368
30 2 2 53.7726545395 71.8725642678 38.7949920321
31 2 2 53.7426117124 71.2136526815 39.5939807436
32 2 2 53.9290606041 70.743944126 40.4984478214
33 2 2 54.3020871386 70.5146281724 41.4374448444
34 2 2 54.8147711864 70.5549832487 42.3368760792
35 2 2 55.4074632088 70.8697079893 43.1262521083
36 2 2 56.0132211542 71.438492967 43.7451147522
37 3 1 17.7303739506 51.2794503344 65.6813394385
38 3 1 23.0999955694 50.956097311 64.4241212576
39 3 2 17.4908572872 50.7960318995 65.8090890873
40 3 2 17.1425586951 49.8209916646 65.846965757
41 3 2 16.9626121502 48.8240086971 65.6299537418
42 3 2 16.9813406371 47.8872152062 65.1877804607
43 3 2 17.2109584419 47.0872572913 64.5706961803
44 3 2 17.6444578533 46.4883088544 63.844893837
45 3 2 18.2562478965 46.1362223212 63.0864757284
46 3 2 19.0044868818 46.0543493145 62.3745169917
47 3 2 19.8348961636 46.2414122164 61.7838581167
48 3 2 20.685707493 46.6716206198 61.3782834347
49 3 2 21.4932930292 47.2970220548 61.204707348
50 3 2 22.1979648469 48.0518727287 61.2888982065
51 3 2 22.7494153312 48.8586298963 61.6331295924
52 3 2 23.1113025821 49.6350196746 62.2159730885
53 3 2 23.2645628817 50.3015360868 62.9942514218
54 3 2 23.2091483011 50.7886878196 63.9069739561
55 4 1 43.7112634648 40.3970935073 22.4011060041
56 4 1 43.3522215653 43.6439029061 26.856137845
57 4 2 43.2772617527 40.4236397053 22.0571301311
58 4 2 42.3421930414 40.4385579537 21.6111772611
59 4 2 41.3178319053 40.4231101255 21.4565951193
60 4 2 40.2932163484 40.3974127583 21.6080963308
61 4 2 39.3574075646 40.3825166077 22.0524948413
62 4 2 38.5913722478 40.3984879275 22.7499077904
63 4 2 38.0606026942 40.4625794839 23.637390728
64 4 2 37.8091473542 40.5876580122 24.6346748324
65 4 2 37.8555959346 40.7810314483 25.6514831992
66 4 2 38.1913849957 41.0437828296 26.5957593395
67 4 2 38.7815784866 41.3706715794 27.3820578832
68 4 2 39.5680520724 41.7506111712 27.9393326956
69 4 2 40.4747910123 42.1676796361 28.2174125432
70 4 2 41.4148186998 42.6025708076 28.1915740673
71 4 2 42.2981243481 43.0343540271 27.864795252
72 4 2 43.0398672327 43.4423819177 27.267483989
73 5 1 46.2035708469 21.6610603206 41.9244203057
74 5 1 50.4280125615 20.6580227355 45.3399728033
75 5 2 45.7041655818 21.5283305866 42.1253152707
76 5 2 44.8745813884 21.0747129938 42.5489556332
77 5 2 44.2473681465 20.3954830389 43.0166095957
78 5 2 43.881415465 19.5576902091 43.504084539
79 5 2 43.8117997508 18.6428365739 43.9853812144
80 5 2 44.0465870886 17.7394480893 44.4350635057
81 5 2 44.5660980382 16.9350056934 44.8305768633
82 5 2 45.3247013634 16.3079716528 45.1543040914
83 5 2 46.2549731968 15.9206379367 45.3951711077
84 5 2 47.2738425454 15.8134484704 45.549656317
85 5 2 48.2901629896 16.0013127794 45.6221115946
86 5 2 49.2130204355 16.4722470266 45.6243656253
87 5 2 49.9600196916 17.1884663062 45.5746457495
88 5 2 50.4647945707 18.0898286374 45.4959165905
89 5 2 50.6830569897 19.0993167453 45.41378689
90 5 2 50.5966337109 20.1300579791 45.3541753404
91 6 1 58.2976326404 21.4854127358 69.3401107218
92 6 1 55.6424588421 21.651947974 74.1816300264
93 6 2 58.5375702311 21.9617646194 69.1887818627
94 6 2 58.7742671808 22.9426971809 68.9538438387
95 6 2 58.7232345914 23.9680147066 68.813952247
96 6 2 58.3956928312 24.9508336145 68.7986747912
97 6 2 57.8280653401 25.8081439581 68.9262209298
98 6 2 57.0786587311 26.4683755607 69.2017821323
99 6 2 56.2223482974 26.8779214466 69.6170586905
100 6 2 55.3437533306 27.0060239727 70.1510162152
101 6 2 54.5295242976 26.8475783062 70.7718028644
102 6 2 53.8604448826 26.423597716 71.4396525532
103 6 2 53.4040687701 25.7792982698 72.1105095265
104 6 2 53.2085623069 24.97997751 72.7400439235
105 6 2 53.2983142688 24.1050627573 73.2876923254
106 6 2 53.6717128883 23.2408715231 73.7203550033
107 6 2 54.3012927634 22.4727438986 74.0154128696
108 6 2 55.1362382552 21.8772640336 74.1627891474
109 7 1 66.6574572748 26.9286023768 49.2422748761
110 7 1 61.7472907821 24.4434725992 49.7243392536
111 7 2 66.7312401727 27.3664696703 49.5742536484
112 7 2 66.66155839 28.252351396 50.1069900076
113 7 2 66.3211723343 29.1498451648 50.4969801092
114 7 2 65.732369277 29.971349719 50.7247765935
115 7 2 64.9400790347 30.6361900146 50.7857156157
116 7 2 64.0077787374 31.0779705363 50.6903419427
117 7 2 63.0117070573 31.2506270708 50.4634478256
118 7 2 62.0339152577 31.1326253369 50.1418132526
119 7 2 61.1547884396 30.7289237778 49.7708535512
120 7 2 60.4457186546 30.0705216122 49.4004799025
121 7 2 59.9625977106 29.2116333382 49.0805500706
122 7 2 59.740722782 28.2247472269 48.8563240003
123 7 2 59.7915791676 27.1940182102 48.7643384945
124 7 2 60.1017934357 26.2075973835 48.829076982
125 7 2 60.6343523767 25.3495972693 49.0607379185
126 7 2 61.3319766585 24.6924251852 49.4543052247
127 8 1 33.1546732864 19.7496816542 22.3118831527
128 8 1 30.679050428 15.1396299982 24.0829580392
129 8 2 32.8307517456 20.1995109229 22.3013925583
130 8 2 32.0784227653 20.8986318866 22.1647141232
131 8 2 31.1871838615 21.3563085264 21.900753291
132 8 2 30.2277906759 21.5284560312 21.5494984503
133 8 2 29.2772109307 21.3970148075 21.158894605
134 8 2 28.4116090267 20.9715965629 20.7804733158
135 8 2 27.6994038614 20.2886082248 20.4646557359
136 8 2 27.1950326299 19.4079335461 20.2561568576
137 8 2 26.9339890193 18.4074748613 20.1899098607
138 8 2 26.9295880548 17.376052497 20.2878820458
139 8 2 27.17175247 16.4053090363 20.5570725744
140 8 2 27.6279312234 15.5813563425 20.9888745133
141 8 2 28.2460664386 14.9769266927 21.559859334
142 8 2 28.9593383404 14.6447434256 22.2339123603
143 8 2 29.692255699 14.6127153493 22.9655245246
144 8 2 30.3675366537 14.881392929 23.7039403977
145 9 1 29.2633374122 38.5382606943 3.08157738571
146 9 1 33.2217502921 42.3275632516 2.38147406276
147 9 2 28.8561283925 38.5536464296 2.70564430455
148 9 2 28.0900458443 38.8112310217 2.05740228313
149 9 2 27.387005838 39.3480641977 1.51796285003
150 9 2 26.8207801791 40.1192925755 1.12041372915
151 9 2 26.4526704105 41.058698277 0.884909721659
152 9 2 26.3259203415 42.0847345102 0.81683564977
153 9 2 26.4617744899 43.107958342 0.906315544553
154 9 2 26.8575417008 44.039183182 1.12911281412
155 9 2 27.4868404384 44.7976079021 1.44883934421
156 9 2 28.3020033925 45.3181816431 1.82027217753
157 9 2 29.2384222261 45.557533027 2.19347546543
158 9 2 30.2204364533 45.4979233421 2.51835198707
159 9 2 31.1682296895 45.1488633787 2.7492093772
160 9 2 32.0051047022 44.5462465467 2.84892486309
161 9 2 32.6644741584 43.7490772868 2.7923289061
162 9 2 33.0959298823 42.8340929733 2.5684993378
163 10 1 36.5692161253 73.2556621686 56.1976476974
164 10 1 37.4352537779 68.1346786492 54.3152296674
165 10 2 36.039545792 73.378054477 56.3065102204
166 10 2 35.0136502153 73.5223307965 56.2933717085
167 10 2 34.0179914666 73.5316818644 56.0069695003
168 10 2 33.1369541527 73.3887314736 55.480862621
169 10 2 32.4444754429 73.0899852879 54.7704585359
170 10 2 31.9973058937 72.6461493412 53.9479629079
171 10 2 31.8298367874 72.0811542117 53.0957982447
172 10 2 31.9509654583 71.4299738131 52.299091307
173 10 2 32.3432843249 70.7354376158 51.637914032
174 10 2 32.9646675439 70.0443268558 51.1799851908
175 10 2 33.7521106687 69.4031105493 50.9744980025
176 10 2 34.6274733362 68.8537099666 51.0476363045
177 10 2 35.5046015519 68.4296776201 51.4001879655
178 10 2 36.2971803961 68.1531390425 52.0074730732
179 10 2 36.9266013985 68.0327761039 52.8215934426
180 10 2 37.3291274902 68.0630356821 53.7757984073
181 11 1 50.1063781317 2.4128291231 68.1777675491
182 11 1 55.2205877595 1.89059000146 66.155363721
183 11 2 49.7326239929 2.61111915161 67.8194792623
184 11 2 49.1957566478 3.14909930031 67.1153480072
185 11 2 48.9158805006 3.85364272288 66.4091342158
186 11 2 48.9238901438 4.65201963838 65.7488462804
187 11 2 49.2244401496 5.46294759381 65.1783065743
188 11 2 49.795520818 6.20400014244 64.7331571593
189 11 2 50.590464302 6.79911979408 64.4376111077
190 11 2 51.5421982575 7.18555045207 64.3022455447
191 11 2 52.5693593079 7.31955746375 64.3230375723
192 11 2 53.5837090987 7.18041391715 64.4817309454
193 11 2 54.498176987 6.7722898436 64.74750008
194 11 2 55.2347962989 6.12387213057 65.0797597225
195 11 2 55.7318107825 5.28574978849 65.431864187
196 11 2 55.9493035258 4.32580289773 65.7553589856
197 11 2 55.8728352762 3.32301552063 66.0043973247
198 11 2 55.51476054 2.36027651536 66.1399189178
199 12 1 72.9055355383 57.0323531119 56.5347959988
200 12 1 76.0031793207 58.2277393305 60.9499569072
201 12 2 72.9826945395 57.3653025612 56.0982496201
202 12 2 73.0958620965 58.1583310024 55.4411735159
203 12 2 73.1757562488 59.1115034231 55.04301617
204 12 2 73.2340739561 60.1408626955 54.9407002641
205 12 2 73.2844788138 61.1555074639 55.1441833235
206 12 2 73.3413556519 62.0658775604 55.635550115
207 12 2 73.4184993973 62.7919171747 56.3706455729
208 12 2 73.5278577019 63.2703717274 57.2830994147
209 12 2 73.6784419469 63.4605533554 58.2903756155
210 12 2 73.8755058793 63.3480495026 59.3012953456
211 12 2 74.1200667467 62.9460365852 60.2243476776
212 12 2 74.4088125779 62.2940789969 60.9760305623
213 12 2 74.7344040607 61.4545229202 61.4884618179
214 12 2 75.0861434998 60.5068136383 61.7155664087
215 12 2 75.4509498839 59.5402543101 61.6372760624
216 12 2 75.8145511845 58.6458662257 61.2613584385
217 13 1 59.2755999356 17.1874826758 61.303536141
218 13 1 53.9617941175 17.6785153482 59.8751294401
219 13 2 59.3628237732 17.0165970711 61.8237012113
220 13 2 59.3751675959 16.8698191393 62.8492517366
221 13 2 59.1794765816 16.947519534 63.8637061154
222 13 2 58.7795383412 17.229708342 64.7768703348
223 13 2 58.1977570742 17.6777570779 65.5077827092
224 13 2 57.4731114864 18.237919567 65.9920933213
225 13 2 56.6576019843 18.8462307658 66.1879293456
226 13 2 55.8115109772 19.4343370046 66.0797116442
227 13 2 54.9979082972 19.9357262416 65.6795747637
228 13 2 54.2769025519 20.2917904582 65.0262609033
229 13 2 53.700162386 20.4571676228 64.1815886677
230 13 2 53.3062070221 20.4038763191 63.2248184657
231 13 2 53.1168953368 20.123866177 62.2454281363
232 13 2 53.1354334822 19.6297516428 61.3349572826
233 13 2 53.3460826538 18.9536622057 60.5786636817
234 13 2 53.7155936408 18.1443138811 60.0477522662
235 14 1 69.9224204833 33.1670032569 27.7999112888
236 14 1 66.0095886451 35.9650806873 25.0835717002
237 14 2 69.7346301873 32.8286687356 28.1969580675
238 14 2 69.2653246265 32.3874384798 29.0084493879
239 14 2 68.6668184925 32.2232825413 29.8380837933
240 14 2 67.9776537404 32.3442242097 30.6022009758
241 14 2 67.2446356159 32.7323008895 31.223112347
242 14 2 66.5185664825 33.3452013431 31.6361821458
243 14 2 65.8496153217 34.1201222468 31.7957188146
244 14 2 65.2827449644 34.9794925457 31.6791396633
245 14 2 64.8536138492 35.8380438485 31.2890292206
246 14 2 64.5853258508 36.6105824131 30.6529036612
247 14 2 64.4863244239 37.2197543286 29.8207027804
248 14 2 64.5496230044 37.6030961175 28.8602381148
249 14 2 64.7534418166 37.7187281148 27.8510121024
250 14 2 65.063193041 37.5491716875 26.8769716473
251 14 2 65.434633402 37.1029423651 26.0188565844
252 14 2 65.8178968242 36.4137736721 25.3468404588
253 15 1 48.4036937922 13.2940293119 68.8719918967
254 15 1 43.8710336269 12.0923426948 71.7924254537
255 15 2 48.4536632982 13.0176573864 68.3939718183
256 15 2 48.505575172 12.3132641456 67.6359577479
257 15 2 48.4842470929 11.4215322605 67.1088815017
258 15 2 48.3734275881 10.4232704789 66.8546326788
259 15 2 48.1650220893 9.40899746399 66.8902333877
260 15 2 47.8598307305 8.47069126004 67.206286727
261 15 2 47.4674754182 7.69340573954 67.7678332877
262 15 2 47.0055228205 7.14751817007 68.5175376095
263 15 2 46.4978832118 6.88231451444 69.3809141553
264 15 2 45.9726311156 6.92149714691 70.2731164687
265 15 2 45.4594463864 7.26102444514 71.1066707012
266 15 2 44.9869089706 7.86947917326 71.7994486206
267 15 2 44.5798939205 8.69093207895 72.2821533792
268 15 2 44.2573041 9.65003969527 72.5046357363
269 15 2 44.030347239 10.6589116964 72.4404650278
270 15 2 43.9015143786 11.6251218657 72.0893382501
271 16 1 49.7414965852 10.5707662265 43.5702294674
272 16 1 46.7620835178 10.2060796017 48.2079112699
273 16 2 49.5927573397 10.9814124572 43.228721198
274 16 2 49.0993951646 11.6588125013 42.6194815443
275 16 2 48.3629616946 12.1770801156 42.1071199188
276 16 2 47.4463323598 12.5030187753 41.7507427815
277 16 2 46.4288069622 12.6209622255 41.5952390229
278 16 2 45.3988817099 12.5342024187 41.6671884621
279 16 2 44.4461830248 12.2646894623 41.972439167
280 16 2 43.6532983335 11.8510309247 42.4955744188
281 16 2 43.0882484442 11.3449728589 43.2013179046
282 16 2 42.7982876319 10.8066832877 44.0377490591
283 16 2 42.8055965376 10.2992680498 44.941035485
284 16 2 43.1052604618 9.8830188706 45.8412511062
285 16 2 43.6657173266 9.60991793314 46.6687497417
286 16 2 44.4316344746 9.51889984075 47.3605131698
287 16 2 45.3289520927 9.6323028321 47.86589507
288 16 2 46.2716335661 9.95383271046 48.1512372998
289 17 1 4.24259525711 39.4553291064 22.4933347454
290 17 1 0.892486176224 42.9358023377 19.8135835827
291 17 2 4.77539430996 39.4810405658 22.3421868767
292 17 2 5.68264857143 39.5092490906 21.8426430895
293 17 2 6.40452551291 39.5254004678 21.099620327
294 17 2 6.87759747167 39.5468912915 20.1781046856
295 17 2 7.06111469416 39.59063148 19.1593514102
296 17 2 6.94071956714 39.6715029812 18.1334786964
297 17 2 6.52975527572 39.8010033232 17.1912536576
298 17 2 5.86804960774 39.9861976451 16.415819145
299 17 2 5.01828475734 40.2290747288 15.8751154993
300 17 2 4.06028401049 40.5263657265 15.6156879701
301 17 2 3.08373606584 40.8698421075 15.6584442405
302 17 2 2.18002014954 41.247065667 15.9967487482
303 17 2 1.43387704302 41.642522235 16.597027499
304 17 2 0.915685187262 42.0390357517 17.4018282463
305 17 2 0.675045875993 42.4193338188 18.3350571106
306 17 2 0.736262230347 42.7676220335 19.3089143325
307 18 1 20.7367285441 77.8853052642 10.0159327466
308 18 1 20.4118700814 72.6865587677 8.17596184866
309 18 2 20.5005666412 77.9735127074 10.5097227735
310 18 2 19.8755970537 78.0290183038 11.3342117999
311 18 2 19.0666581014 77.9248099767 11.9731236929
312 18 2 18.1519895419 77.6542554188 12.3776378073
313 18 2 17.219468104 77.2258843375 12.5202982285
314 18 2 16.3585977587 76.6626109941 12.3975163064
315 18 2 15.6523516713 75.9996456308 12.029897751
316 18 2 15.1696094194 75.2812851508 11.460364477
317 18 2 14.9588788031 74.5568755743 10.7502423861
318 18 2 15.0438744892 73.8763142803 9.97367167478
319 18 2 15.4213564825 73.2855019942 9.21084915379
320 18 2 16.0614254423 72.822159059 8.54071852302
321 18 2 16.910247928 72.5123873274 8.03377486429
322 18 2 17.8949631731 72.3682910469 7.74563920313
323 18 2 18.9303241491 72.3868735909 7.71198880086
324 18 2 19.9264676047 72.5503105924 7.94530526768
325 19 1 64.6878524602 71.6235661347 35.1565208391
326 19 1 68.1722089059 75.8979099902 34.8290520232
327 19 2 64.3710971631 71.5455379809 34.7082360223
328 19 2 63.7326717363 71.6288521845 33.8964960829
329 19 2 63.0955938392 72.0058441202 33.1716106819
330 19 2 62.5301880516 72.6462964204 32.5854476008
331 19 2 62.1002462321 73.4959780095 32.1772304524
332 19 2 61.857213061 74.4815871214 31.9699635533
333 19 2 61.8354969944 75.5174325596 31.9683351421
334 19 2 62.0493340262 76.5132442208 32.1582900588
335 19 2 62.4914901149 77.3824009735 32.5083108351
336 19 2 63.1339205469 78.0498259423 32.9722904274
337 19 2 63.930326138 78.4588295651 33.4937347507
338 19 2 64.8203732793 78.5762766947 34.0109119632
339 19 2 65.7351931853 78.3956067787 34.4624791589
340 19 2 66.6036590989 77.9374318369 34.7930736096
341 19 2 67.3588693057 77.2476577305 34.9583589294
342 19 2 67.9442450461 76.3932999655 34.9290662177
343 20 1 9.10633838399 51.0085661284 34.5075245959
344 20 1 7.34096388956 51.9680833499 39.6534716086
345 20 2 9.3280297803 51.4472456958 34.2510197228
346 20 2 9.54454770252 52.3738201469 33.8411053572
347 20 2 9.4955136753 53.3715389791 33.5661457105
348 20 2 9.19495931682 54.3579450602 33.4655468439
349 20 2 8.67984165122 55.2516123851 33.5628222992
350 20 2 8.00667457457 55.9795678384 33.8634499029
351 20 2 7.24637776436 56.4839424989 34.3543724767
352 20 2 6.47781254039 56.7272462371 35.0051879641
353 20 2 5.78059386631 56.6957848403 35.7709204972
354 20 2 5.2278336584 56.4009082035 36.5961198263
355 20 2 4.87947682988 55.8779758166 37.4199154623
356 20 2 4.77683747224 55.1831338419 38.1815648591
357 20 2 4.93883318628 54.3881975408 38.8259899339
358 20 2 5.36026079327 53.5741055053 39.3087972877
359 20 2 6.01227059089 52.8235423212 39.6003245449
360 20 2 6.84499592641 52.2134020894 39.6883439993
361 21 1 30.5049251214 7.08345922926 52.6116716614
362 21 1 35.8134871433 6.85261689008 54.1229201967
363 21 2 30.2661548793 6.59130757753 52.521354934
364 21 2 30.0091149674 5.63465881408 52.2177044141
365 21 2 30.0244083436 4.69787697324 51.7753743264
366 21 2 30.3184849564 3.85560536999 51.2485465525
367 21 2 30.8723844073 3.17387296379 50.6991047123
368 21 2 31.6434641405 2.70407599532 50.1909936372
369 21 2 32.5692861982 2.47829335661 49.7843909702
370 21 2 33.5733082729 2.50636268571 49.5302221338
371 21 2 34.5718603349 2.77498369228 49.4655186146
372 21 2 35.4817709315 3.24893044353 49.6100426417
373 21 2 36.2279480425 3.87426211382 49.9644859127
374 21 2 36.7502235173 4.58323954677 50.5104065471
375 21 2 37.0088372413 5.30049949828 51.2119100146
376 21 2 36.9880611633 5.94992379484 52.0189208255
377 21 2 36.6976328662 6.46157730157 52.8717467775
378 21 2 36.1718680118 6.77808232285 53.706519741
379 22 1 79.2870237818 30.0910926618 15.8641301076
380 22 1 78.0341864698 24.9076618892 17.3065014733
381 22 2 78.8627790005 30.4475705657 15.8820593479
382 22 2 77.9608027377 30.9486825052 15.788380874
383 22 2 76.9818488144 31.190725863 15.550653635
384 22 2 76.0057398462 31.1457197255 15.2062182405
385 22 2 75.1120391387 30.8118469735 14.8021414631
386 22 2 74.3727987047 30.2136199075 14.3909262281
387 22 2 73.845991916 29.3996460173 14.0257261122
388 22 2 73.5702293853 28.4381975391 13.7555005369
389 22 2 73.5612397123 27.4109886234 13.6205522481
390 22 2 73.8104358637 26.4057273092 13.6488538288
391 22 2 74.2856978582 25.50812117 13.8534980726
392 22 2 74.9343004174 24.7940652978 14.2315046106
393 22 2 75.6877187335 24.3227246685 14.7640915644
394 22 2 76.4678743228 24.1311414124 15.4183874635
395 22 2 77.1942516705 24.2308585227 16.1504273927
396 22 2 77.7912370048 24.606867743 16.9091602759
397 23 1 62.1667854667 42.6520350039 65.3840996048
398 23 1 59.4760182642 38.4757373533 62.9682558893
399 23 2 62.0956732616 42.6895119483 65.9326614709
400 23 2 61.7346652471 42.7449801907 66.902221422
401 23 2 61.1069670208 42.7615221721 67.7263399273
402 23 2 60.2696627219 42.7191310285 68.3350882441
403 23 2 59.2989415229 42.603171493 68.6781680467
404 23 2 58.2831531899 42.4057138607 68.7294959845
405 23 2 57.3147552381 42.1262567605 68.4895811095
406 23 2 56.4818856759 41.7717728537 67.9854784777
407 23 2 55.8603294614 41.3560732945 67.2683231529
408 23 2 55.5066109058 40.8985488801 66.4086693826
409 23 2 55.4528416334 40.4224026315 65.4900597667
410 23 2 55.7037936932 39.9525349002 64.6014105727
411 23 2 56.2364645992 39.5132737675 63.828907256
412 23 2 57.0021739455 39.126157605 63.2481488855
413 23 2 57.9310004952 38.80797191 62.9172574907
414 23 2 58.9381553144 38.5692193514 62.8715803944
415 24 1 25.0743386741 25.1831874741 24.2723918593
416 24 1 19.9542292583 26.0602564826 26.1520781593
417 24 2 25.3374360404 25.6362919752 24.0911249982
418 24 2 25.6314622033 26.5157875426 23.629079358
419 24 2 25.640941522 27.3782688841 23.0550705696
420 24 2 25.3592244803 28.1583321447 22.4341141871
421 24 2 24.8062033318 28.7980856573 21.8355049124
422 24 2 24.0264989745 29.2524266131 21.3265005684
423 24 2 23.0853938748 29.4931520623 20.9661917277
424 24 2 22.0628817456 29.5115295379 20.8001157656
425 24 2 21.0463763328 29.3190929959 20.8561062493
426 24 2 20.1227438863 28.946591527 21.1417559832
427 24 2 19.370385533 28.4411866586 21.6437249448
428 24 2 18.8520912245 27.8621537075 22.3289561923
429 24 2 18.6093166 27.2754789937 23.1476889161
430 24 2 18.6584044158 26.7478453634 24.0379940041
431 24 2 18.9890949472 26.3405542259 24.9314187144
432 24 2 19.5654611343 26.1039380937 25.7592259598
433 25 1 35.1125105796 62.4118961737 3.01979854172
434 25 1 31.7678124145 59.3403950004 6.16572698777
435 25 2 34.9996172226 62.9547005739 3.01955121413
436 25 2 34.5698591247 63.8962662749 2.97251910647
437 25 2 33.8869612646 64.6704318902 2.88438214519
438 25 2 33.0082315728 65.2095980936 2.78150384292
439 25 2 32.0088275282 65.4675851274 2.69159134611
440 25 2 30.9749057541 65.4238419637 2.64117000271
441 25 2 29.9957690728 65.0853194754 2.65316564758
442 25 2 29.1557267918 64.4858368833 2.74481497391
443 25 2 28.5264101357 63.6829992239 2.92609445476
444 25 2 28.1602432517 62.7529468047 3.19881101412
445 25 2 28.0856648885 61.7834152185 3.55643733071
446 25 2 28.3045362805 60.8657384787 3.98470678577
447 25 2 28.7919715014 60.086524168 4.46291382733
448 25 2 29.4986057495 59.5197593887 4.96580122586
449 25 2 30.3550948177 59.2200670364 5.46586220325
450 25 2 31.2784356327 59.2177270684 5.93584760213
451 26 1 65.4873888928 32.7282940445 56.0334891956
452 26 1 65.5468102186 37.1250696055 52.6894161052
453 26 2 65.627479068 32.8330500053 56.5595904402
454 26 2 66.0744118002 33.1352625003 57.444106552
455 26 2 66.718396319 33.5655703331 58.132270137
456 26 2 67.4924952969 34.1018654338 58.5642520216
457 26 2 68.3179118208 34.7123792762 58.7035733097
458 26 2 69.1111715209 35.3585784943 58.5404303361
459 26 2 69.7917310357 35.9986770955 58.0925882446
460 26 2 70.2893193243 36.591445142 57.403761743
461 26 2 70.5503426841 37.0999667495 56.5396306236
462 26 2 70.5427696736 37.4950048718 55.5818532264
463 26 2 70.2590506924 37.7576661786 54.620623499
464 26 2 69.7168061073 37.8811231328 53.74645006
465 26 2 68.9572202029 37.871236302 53.0419065797
466 26 2 68.0412873443 37.7460201832 52.5741054112
467 26 2 67.0442525033 37.53400123 52.3885804786
468 26 2 66.048752881 37.2716177421 52.5051369816
469 27 1 71.3027968346 49.1263831608 50.8198343683
470 27 1 68.3264382866 45.8550807553 54.1301004342
471 27 2 71.2727005242 49.667329436 50.9375328282
472 27 2 70.9845936416 50.6386553422 51.1542594288
473 27 2 70.4189633731 51.4805824054 51.3656151261
474 27 2 69.6270866097 52.1161718182 51.5715454566
475 27 2 68.6808620059 52.4872918988 51.7724904644
476 27 2 67.6662566094 52.559916638 51.9693445925
477 27 2 66.6754701941 52.3272270791 52.1633751565
478 27 2 65.7985314978 51.8102328478 52.3561068323
479 27 2 65.1150923427 51.0558571807 52.5491826863
480 27 2 64.6871675852 50.1326599979 52.7442144137
481 27 2 64.5534826272 49.1245888493 52.9426354371
482 27 2 64.7259436992 48.12332732 53.1455702539
483 27 2 65.1885526395 47.2199383166 53.3537319413
484 27 2 65.8988650836 46.4965639265 53.567357161
485 27 2 66.7918591548 46.018938386 53.7861845887
486 27 2 67.7858620342 45.830396581 54.0094787325
487 28 1 60.4730360744 44.5504753681 36.8095884403
488 28 1 59.8804804313 41.0203298536 41.0173124709
489 28 2 60.5658543997 45.0766886753 36.9574596745
490 28 2 60.5514667312 46.0263955362 37.3713435767
491 28 2 60.3045517059 46.8544117408 37.9430709124
492 28 2 59.8591101053 47.4830642119 38.6357669945
493 28 2 59.2672378772 47.8528513438 39.4015311579
494 28 2 58.5943777303 47.9278664146 40.1858027773
495 28 2 57.9133542051 47.6990703878 40.9323343221
496 28 2 57.2977359125 47.1851157965 41.5883181689
497 28 2 56.8151299513 46.4306466149 42.1091998746
498 28 2 56.5210197016 45.502229079 42.4627391954
499 28 2 56.4537076634 44.4822843527 42.6319486986
500 28 2 56.6308242857 43.4615760585 42.6166421217
501 28 2 57.0477209987 42.5309374159 42.4334513496
502 28 2 57.6778939178 41.7729920368 42.1143104631
503 28 2 58.4753996025 41.2546230033 41.7035450324
504 28 2 59.3790426781 41.0208766543 41.25383196
505 29 1 11.4447712156 49.7676043747 76.4294909234
506 29 1 11.6786518254 44.7030642517 74.2354708086
507 29 2 11.2962384961 49.7842486436 76.9633847215
508 29 2 10.8413506492 49.6789914225 77.8882890275
509 29 2 10.2007901498 49.3924547932 78.6505416221
510 29 2 9.44190108331 48.9352782196 79.1876886936
511 29 2 8.64281286748 48.3336545402 79.457794197
512 29 2 7.88531896525 47.6269425616 79.4432622127
513 29 2 7.24742162901 46.8640796077 79.1524407673
514 29 2 6.79622220382 46.0991210137 78.6188609332
515 29 2 6.58180501914 45.3863131269 77.8981805612
516 29 2 6.63267233607 44.775148897 77.0631112159
517 29 2 6.95314644244 44.3058567261 76.1967907114
518 29 2 7.52297568781 44.0057337571 75.3852053211
519 29 2 8.29918036729 43.8866578126 74.7093523591
520 29 2 9.21997020677 43.9440047625 74.2378574917
521 29 2 10.2103763812 44.1570700017 74.0207196907
522 29 2 11.1890847228 44.490955619 74.0847539615
523 30 1 8.40462020009 17.5488719605 74.1310654538
524 30 1 8.10042220133 14.9499309656 78.9963465704
525 30 2 7.91834180276 17.7193902208 73.9265210057
526 30 2 6.94393451687 17.8164434402 73.588052211
527 30 2 5.95497308147 17.6234710378 73.3468739731
528 30 2 5.0324965069 17.1638519999 73.2408677442
529 30 2 4.25148388618 16.4852694408 73.2955944089
530 30 2 3.67402025098 15.6553644143 73.5219644782
531 30 2 3.34363768702 14.7555706131 73.9152436257
532 30 2 3.28134750075 13.8736919045 74.4554842084
533 30 2 3.48372509494 13.0958992433 75.1093434415
534 30 2 3.92322211157 12.4988764191 75.8331225037
535 30 2 4.55067739104 12.142830534 76.5767495683
536 30 2 5.29979788043 12.0660042863 77.2883437161
537 30 2 6.09320106816 12.2811902506 77.9189437428
538 30 2 6.84946819301 12.7745648689 78.4269708416
539 30 2 7.49056534667 13.5069484307 78.7820184006
540 30 2 7.94895605586 14.4173761993 78.967623484
541 31 1 57.4897617273 61.7192427235 6.02785361144
542 31 1 60.361650758 63.3645559038 10.4508830026
543 31 2 57.6461260084 61.9501616704 5.54867907162
544 31 2 57.9184724716 62.5823690466 4.7743462952
545 31 2 58.1593267707 63.4244289541 4.22083538291
546 31 2 58.3658255586 64.400290869 3.94065368353
547 31 2 58.5382369015 65.4217085723 3.96139531859
548 31 2 58.679935845 66.3962835564 4.28322605202
549 31 2 58.7970967877 67.2358869024 4.87886818115
550 31 2 58.8981307016 67.8646919956 5.69608682643
551 31 2 58.9929184941 68.2260859185 6.66245100109
552 31 2 59.09191039 68.2878295671 7.691935502
553 31 2 59.2051734211 68.0449961589 8.69276187696
554 31 2 59.3414738437 67.5204202962 9.5757637854
555 31 2 59.5074781171 66.762616653 10.2625142719
556 31 2 59.7071452742 65.8413579921 10.6924741737
557 31 2 59.941366066 64.8413155641 10.8285101034
558 31 2 60.207881772 63.8543415497 10.6602790582
559 32 1 31.9745382616 39.1995602074 21.1338620116
560 32 1 36.0469632291 37.4256059351 24.4181324306
561 32 2 31.56457728 38.8352800571 21.0525382532
562 32 2 30.975050377 38.0080091281 20.8487470563
563 32 2 30.6603363749 37.0504910435 20.6088215976
564 32 2 30.647577429 36.0419271985 20.3719963644
565 32 2 30.936393298 35.0661716731 20.1772232666
566 32 2 31.4989160026 34.2040881566 20.0596212747
567 32 2 32.2823299167 33.5261794384 20.047275419
568 32 2 33.213685771 33.0861612674 20.1586769141
569 32 2 34.2065497836 32.9160663049 20.4010377346
570 32 2 35.1688818686 33.0233244334 20.7696332625
571 32 2 36.0114248436 33.390085542 21.2482329236
572 32 2 36.6558399833 33.9748465173 21.8105795611
573 32 2 37.0418473852 34.7162341402 22.422782705
574 32 2 37.1327203213 35.5385990917 23.0464075981
575 32 2 36.9186327815 36.3589111856 23.6419784211
576 32 2 36.4175550877 37.0943273479 24.1725764084
577 33 1 63.321223078 28.6335096734 18.5204526015
578 33 1 59.3270618501 25.9307633947 15.8260454867
579 33 2 63.8250497882 28.4054662341 18.481255358
580 33 2 64.6534518377 27.7832791449 18.4721294811
581 33 2 65.2688920576 26.9519161065 18.5314493375
582 33 2 65.6153933568 25.9810696627 18.6355840741
583 33 2 65.6614917079 24.9531458967 18.7568180811
584 33 2 65.4031040093 23.9557533371 18.8658771959
585 33 2 64.8639002493 23.0737176748 18.9345969651
586 33 2 64.0931460492 22.3813501276 18.9384897584
587 33 2 63.1612122343 21.9356741717 18.8589767514
588 33 2 62.1531607211 21.7712280042 18.6850813352
589 33 2 61.1609913505 21.8969164783 18.4144296056
590 33 2 60.2752563488 22.2951994504 18.0534667375
591 33 2 59.5768067342 22.9236905169 17.6168695247
592 33 2 59.1294229619 23.7190204217 17.1262086295
593 33 2 58.9740015073 24.6026129944 16.6079824741
594 33 2 59.1248272603 25.4878471584 16.0912019809