LAMMPS input file for bananas

648 atoms

2 atom types

0 67.4746132241 xlo xhi
0 67.4746132241 ylo yhi
0 67.4746132241 zlo zhi

Masses

 1 1
 2 1

Atoms

1 1 1 11.7847014471 18.3601774147 15.1284752094
2 1 1 16.3956176232 21.2818294981 15.863346659
3 1 2 11.3162132335 18.6566317684 15.124685554
4 1 2 10.5278250897 19.3001825258 15.316999954
5 1 2 9.91975920164 20.0215579423 15.7442839993
6 1 2 9.55288823372 20.7706827732 16.35821881
7 1 2 9.46610158701 21.4949526048 17.0934735686
8 1 2 9.672760897 22.1440283865 17.8736599759
9 1 2 10.1594822121 22.6744244897 18.6182945214
10 1 2 10.8873558491 23.0534721245 19.2501340027
11 1 2 11.7954927441 23.2622968767 19.7022157143
12 1 2 12.806574073 23.2975389804 19.923960639
13 1 2 13.8338983324 23.1716595384 19.8857833784
14 1 2 14.7892835871 22.9118047773 19.5817886593
15 1 2 15.5911046492 22.5573318557 19.0303086475
16 1 2 16.1717326537 22.156221729 18.2722320961
17 1 2 16.4836989666 21.7607060137 17.3672776168
18 1 2 16.504021625 21.4225064343 16.3885507371
19 2 1 37.1255632137 23.6908046942 59.0787779168
20 2 1 32.5266878253 20.7095097936 59.6254595474
21 2 2 37.4209212088 23.5862986486 58.6213690266
22 2 2 37.9500526659 23.1672733668 57.8357889954
23 2 2 38.3958002973 22.4897306337 57.1916281731
24 2 2 38.7037849473 21.6127865596 56.7346677619
25 2 2 38.8321836113 20.6137313202 56.4936269298
26 2 2 38.7555413162 19.5809846865 56.4775452557
27 2 2 38.4670911665 18.6060371691 56.6749588335
28 2 2 37.9793711004 17.7751112857 57.0549451286
29 2 2 37.3230811429 17.1613029692 57.5699413551
30 2 2 36.5442853087 16.8179193749 58.1600794974
31 2 2 35.7002131835 16.7736202988 58.7586428694
32 2 2 34.8540438391 17.0298060337 59.2981468832
33 2 2 34.0691474946 17.5604897418 59.7164898065
34 2 2 33.4033097552 18.3146659772 59.9626129095
35 2 2 32.9034648507 19.2209594825 60.0011541184
36 2 2 32.6014179017 20.1941305538 59.8156710259
37 3 1 13.2537886548 6.09880450726 17.7674352565
38 3 1 14.4948609742 10.3604824997 21.0284895512
39 3 2 13.5194198885 6.08946523951 17.2808825077
40 3 2 13.9410829634 6.29467161329 16.3574168253
41 3 2 14.2469222821 6.77706001754 15.4934364959
42 3 2 14.4263950237 7.49883985351 14.7726579761
43 3 2 14.4804758141 8.40040163476 14.2657458597
44 3 2 14.4215678962 9.40574998315 14.0238722839
45 3 2 14.2723726588 10.4294300865 14.07405294
46 3 2 14.0638205609 11.3843163188 14.4166847786
47 3 2 13.8322520325 12.1895531439 15.02550983
48 3 2 13.6161052931 12.7779245429 15.8500084383
49 3 2 13.4524129722 13.1019802938 16.8200037813
50 3 2 13.3734268386 13.1383607335 17.8520580073
51 3 2 13.4036782727 12.8899258316 18.8570770227
52 3 2 13.5577423999 12.3854945229 19.748430808
53 3 2 13.8389096672 11.6772180599 20.4498491503
54 3 2 14.2388859419 10.8358267831 20.9023731498
55 4 1 61.0135184692 5.65605852111 3.99874430141
56 4 1 57.4626645102 2.34993229378 1.39152347112
57 4 2 61.1701697768 5.48337771033 4.50175767803
58 4 2 61.2312920288 5.13745357014 5.47607735382
59 4 2 60.9888017395 4.77319319738 6.41480580844
60 4 2 60.4662506696 4.40498233963 7.229704216
61 4 2 59.7127161998 4.0475668041 7.84382001042
62 4 2 58.7983282643 3.71470847839 8.19850058421
63 4 2 57.8078774876 3.41793102879 8.25873907154
64 4 2 56.8330871007 3.1654695971 8.01636498401
65 4 2 55.9642529977 2.96152022395 7.49078889469
66 4 2 55.2820138835 2.8058574084 6.72723329745
67 4 2 54.8500016094 2.69385466088 5.7926108867
68 4 2 54.7090415657 2.61690617592 4.76942592404
69 4 2 54.8734317273 2.56321119239 3.74825454048
70 4 2 55.3296394915 2.5188495519 2.8194893431
71 4 2 56.0375350817 2.46905042585 2.06510074868
72 4 2 56.9340491019 2.39953857518 1.55116594214
73 5 1 6.07782602877 53.6730533193 29.3539752934
74 5 1 4.36996141237 56.3144575696 24.8326019439
75 5 2 6.62618783016 53.6002548961 29.3911300507
76 5 2 7.62733721112 53.3809745527 29.2417502694
77 5 2 8.52352930679 53.0852906533 28.8150079227
78 5 2 9.23962451379 52.7566233163 28.1427849633
79 5 2 9.71689782541 52.4413988741 27.2793372185
80 5 2 9.91839121331 52.1848184316 26.2963493435
81 5 2 9.8322820984 52.026738095 25.2764012573
82 5 2 9.47296089792 51.9980363614 24.3054415483
83 5 2 8.8797194375 52.1177997551 23.4649538505
84 5 2 8.11316977072 52.3915832221 22.8245301683
85 5 2 7.24971980592 52.8109038344 22.435528043
86 5 2 6.37460924928 53.3540139513 22.3263896647
87 5 2 5.57414058993 53.9878833674 22.5000495616
88 5 2 4.92781321987 54.6712097895 22.9336671382
89 5 2 4.50107760935 55.3581832571 23.5807084387
90 5 2 4.3393699453 56.0026614069 24.3751873981
91 6 1 13.7253243341 53.1659644742 48.3222110982
92 6 1 10.61443174 49.4971599208 51.0052793686
93 6 2 13.6863690904 53.687351231 48.5066537463
94 6 2 13.3823834396 54.6225958441 48.8316283743
95 6 2 12.8022574412 55.4303070459 49.121032437
96 6 2 11.9976728735 56.0341971369 49.3673223121
97 6 2 11.0407693747 56.3765553143 49.56688394
98 6 2 10.017569409 56.4235076161 49.7203622205
99 6 2 9.02013790913 56.1681043007 49.8326022346
100 6 2 8.13819118897 55.630953268 49.9122076483
101 6 2 7.45091991633 54.8583417904 49.970756548
102 6 2 7.01977142675 53.9180177459 50.0217461769
103 6 2 6.8828492201 52.8930148627 50.0793627536
104 6 2 7.05144008782 51.8740847649 50.1571884964
105 6 2 7.50898539922 50.9514255838 50.2669636961
106 6 2 8.21259030721 50.2064610164 50.41751667
107 6 2 9.09693331944 49.7044191144 50.6139591206
108 6 2 10.0802199045 49.4883871936 50.8572202393
109 7 1 37.5725898112 2.16286546631 6.203170103
110 7 1 32.5863976351 0.582338685937 7.92841142156
111 7 2 37.7283272643 2.6695137284 6.36575588292
112 7 2 37.8083572112 3.6783720678 6.5859792462
113 7 2 37.6029238301 4.68759906694 6.69532393613
114 7 2 37.12385465 5.60583206658 6.70158094827
115 7 2 36.407917227 6.35000188664 6.62193701327
116 7 2 35.5134680335 6.85290401247 6.48140814414
117 7 2 34.5151336657 7.06932382561 6.31055959822
118 7 2 33.4970091414 6.98015760623 6.14272006349
119 7 2 32.5449932154 6.59415370624 6.01094397721
120 7 2 31.738959297 5.94711519697 5.94499884058
121 7 2 31.1454755365 5.09863666474 5.96865211504
122 7 2 30.8117375943 4.12667257284 6.0975049812
123 7 2 30.7612670806 3.12043224671 6.33757039812
124 7 2 30.9917677215 2.17224905553 6.68472506335
125 7 2 31.4753346487 1.36916485867 7.12508522369
126 7 2 32.1609977369 0.784996736992 7.63627208405
127 8 1 65.9778699759 31.3262298906 2.161714605
128 8 1 62.0725834556 27.5806602011 3.18937204908
129 8 2 65.9590888144 31.7794848452 2.48044327596
130 8 2 65.6975368174 32.6289011831 3.01221456977
131 8 2 65.1594789588 33.4073987216 3.43308699037
132 8 2 64.3890771268 34.0366437353 3.72158309288
133 8 2 63.45166977 34.4519058429 3.86829062627
134 8 2 62.4278167454 34.6079577383 3.87672039542
135 8 2 61.40595684 34.4831973488 3.76298627541
136 8 2 60.4743471817 34.0816167161 3.55433654223
137 8 2 59.7130192071 33.4324381494 3.28667037926
138 8 2 59.1864843449 32.587450812 3.00126591284
139 8 2 58.9378542411 31.6162904939 2.74101799404
140 8 2 58.9849114286 30.6000927876 2.54652862711
141 8 2 59.3184885709 29.6240981345 2.45240637513
142 8 2 59.9033040019 28.7698827434 2.48411202679
143 8 2 60.6811774081 28.1079234783 2.65563802003
144 8 2 61.5763325652 27.6911743755 2.96823312732
145 9 1 11.3284806144 16.196750233 46.879437247
146 9 1 9.34406308215 13.0109152156 50.9104640674
147 9 2 11.1697787391 16.7276040423 46.8991527098
148 9 2 10.6582627035 17.6263073251 46.9573078989
149 9 2 9.90949885598 18.335290039 47.0542330405
150 9 2 8.99206694309 18.7933455616 47.1998424308
151 9 2 7.98991964921 18.9621375633 47.3996131308
152 9 2 6.99473088484 18.8296941015 47.6540857694
153 9 2 6.09754033824 18.4114987807 47.9588152687
154 9 2 5.380455832 17.749079528 48.3047759827
155 9 2 4.90916975796 16.9062236076 48.6791843228
156 9 2 4.7269716661 15.9631638491 49.0666638942
157 9 2 4.85080271881 15.0092659746 49.4506469492
158 9 2 5.26971162015 14.1348835264 49.8148844234
159 9 2 5.94585275135 13.4231227606 50.1449269268
160 9 2 6.81793553949 12.9422680821 50.4294417066
161 9 2 7.80681067303 12.7395583891 50.6612455498
162 9 2 8.82268401889 12.8368815712 50.8379594838
163 10 1 34.0639491279 43.0105944659 30.4318989139
164 10 1 33.8893544432 42.4461403988 35.9079872285
165 10 2 34.3294481806 43.4620762259 30.250087954
166 10 2 34.6871469125 44.4163087388 30.0651820333
167 10 2 34.8492567592 45.4384430746 30.1059259699
168 10 2 34.8155435915 46.4364225778 30.3808779739
169 10 2 34.6036212054 47.3203921406 30.8772497956
170 10 2 34.2473459453 48.0108878794 31.5620722871
171 10 2 33.7937309304 48.4460797233 32.3852003138
172 10 2 33.2986611312 48.587406801 33.28388314
173 10 2 32.8217998374 48.4230919997 34.1884837279
174 10 2 32.4211507586 47.9692153687 35.0288256765
175 10 2 32.1477713833 47.2682485325 35.7405893189
176 10 2 32.041119439 46.3851836938 36.2711740196
177 10 2 32.1254565912 45.4016100399 36.5844923612
178 10 2 32.4076371586 44.4082774473 36.6642592654
179 10 2 32.8764833891 43.496825253 36.5154762662
180 10 2 33.503804235 42.7514299571 36.1639756543
181 11 1 12.7305240611 52.4733770541 11.4284033577
182 11 1 13.8717314816 47.2244378655 12.6461545407
183 11 2 12.7118987855 52.5907535543 10.8868716338
184 11 2 12.8851851111 52.7003200674 9.87165476058
185 11 2 13.3071139379 52.6457798414 8.92735623792
186 11 2 13.9309126183 52.4164634911 8.13300902858
187 11 2 14.6914094513 52.017631277 7.55397906122
188 11 2 15.5109736366 51.4699936681 7.2360075741
189 11 2 16.3065907898 50.8078237252 7.20104211488
190 11 2 16.9974291342 50.0758333459 7.44523617207
191 11 2 17.5122067632 49.325098082 7.93929975823
192 11 2 17.7956884974 48.6084019528 8.63116899148
193 11 2 17.8137201921 47.9754265441 9.45075136137
194 11 2 17.5563416541 47.4682228718 10.3163141807
195 11 2 17.0386944445 47.1173787207 11.1419339594
196 11 2 16.2996418295 46.9392307767 11.845327742
197 11 2 15.3982266599 46.934375651 12.3553526343
198 11 2 14.4082900201 47.0876155022 12.6184899908
199 12 1 32.8760361097 8.41305567832 12.1458584312
200 12 1 36.2009215951 4.35787525762 13.8302821283
201 12 2 32.9876654536 8.61496711397 11.6417241105
202 12 2 33.4154271507 9.00731232162 10.783945911
203 12 2 34.0968910634 9.37445664565 10.0958250987
204 12 2 34.9747265229 9.66711960254 9.63058153802
205 12 2 35.9737049405 9.84280917475 9.42112135964
206 12 2 37.0075563776 9.86969466673 9.47703779277
207 12 2 37.9868324586 9.72950785467 9.78373680795
208 12 2 38.8270589778 9.41920800977 10.3037672627
209 12 2 39.4564351434 8.95125903989 10.9802343165
210 12 2 39.8223777279 8.35249348977 11.7419850053
211 12 2 39.8963136686 7.66166693851 12.5100933465
212 12 2 39.6762843062 6.92592569434 13.2050539011
213 12 2 39.1871239036 6.19650973176 13.7540281492
214 12 2 38.4781961725 5.52408251926 14.097483222
215 12 2 37.61889511 4.95411339144 14.1946179144
216 12 2 36.6923202114 4.52273333098 14.0270814351
217 13 1 23.6689063054 52.5470770731 4.96932900618
218 13 1 20.2948888071 56.8997745806 5.05097002725
219 13 2 23.9079335045 52.4436081645 4.47989981345
220 13 2 24.1341521152 52.2669075761 3.48476147468
221 13 2 24.0598386785 52.1407417699 2.45945275358
222 13 2 23.6953630656 52.0942289119 1.4911075916
223 13 2 23.0775414406 52.1492273476 0.661668092358
224 13 2 22.2662807199 52.3183433642 0.0404160606483
225 13 2 21.3391184668 52.6037822139 -0.322341559041
226 13 2 20.384155875 52.99714712 -0.399857815613
227 13 2 19.4920279483 53.4802045857 -0.191383552573
228 13 2 18.7476427417 54.0265462526 0.27776431149
229 13 2 18.2224425742 54.6039958409 0.958510246463
230 13 2 17.967892551 55.1775417974 1.78249300881
231 13 2 18.0107898725 55.7125283578 2.66829630021
232 13 2 18.350821453 56.1778141827 3.52886930499
233 13 2 18.960592456 56.5486106766 4.27946077512
234 13 2 19.7881231463 56.808741299 4.84534352538
235 14 1 56.4727268125 5.47790610946 6.27788600369
236 14 1 59.8721359287 5.41795732336 1.94463563812
237 14 2 55.9406990681 5.57815232744 6.15839572545
238 14 2 55.0357944949 5.94755518268 5.81577711103
239 14 2 54.3169873066 6.51516270598 5.3322109866
240 14 2 53.8476503011 7.21964247137 4.73544528177
241 14 2 53.6684187792 7.98718708644 4.0635452918
242 14 2 53.793486916 8.73824123011 3.36142428692
243 14 2 54.2093140592 9.39475257472 2.67674997566
244 14 2 54.8758588662 9.88728572052 2.05559992005
245 14 2 55.7302287986 10.1613507564 1.53826188175
246 14 2 56.6924123454 10.1823696414 1.15556186877
247 14 2 57.6725715237 9.93882775673 0.92605455623
248 14 2 58.5792299955 9.44332338348 0.854332154891
249 14 2 59.3276105077 8.73141945629 0.930605862656
250 14 2 59.8473617584 7.85840224547 1.13159804676
251 14 2 60.0889704353 6.89424239249 1.4226638404
252 14 2 60.0282740147 5.91721756578 1.76094878482
253 15 1 54.9486764803 45.5485256349 26.7806605365
254 15 1 54.9660573172 43.5912064321 31.9289839891
255 15 2 54.6074858408 45.9765744454 26.6926610197
256 15 2 53.8119537055 46.6370829401 26.6330336672
257 15 2 52.8770538574 47.0726567845 26.7275639334
258 15 2 51.8899680036 47.2534666896 26.9838207704
259 15 2 50.9426342477 47.1729033525 27.3946328622
260 15 2 50.1233675622 46.8481798498 27.9387422408
261 15 2 49.5088104842 46.3187627828 28.5827418045
262 15 2 49.1569476734 45.642775168 29.2841201462
263 15 2 49.1018210085 44.8916989225 29.9951361764
264 15 2 49.3504269025 44.1438597769 30.6671703965
265 15 2 49.8820786283 43.4772884228 31.2551562325
266 15 2 50.6502917719 42.9626085495 31.7216875445
267 15 2 51.5870209679 42.6565999792 32.0404279397
268 15 2 52.6088617679 42.5970235757 32.198511154
269 15 2 53.6246523846 42.7991796002 32.197713724
270 15 2 54.5437824632 43.2545131977 32.0542930678
271 16 1 49.8637531927 29.9568100224 59.5650908839
272 16 1 44.8791983761 31.7956997678 61.0174450801
273 16 2 50.0633671159 29.5452439412 59.8783773248
274 16 2 50.378513949 28.9195289913 60.6411758213
275 16 2 50.5803068607 28.5207749554 61.575506122
276 16 2 50.6346545387 28.3750216682 62.5994692952
277 16 2 50.5209042924 28.485249681 63.622996988
278 16 2 50.2337244049 28.8311086047 64.5560605379
279 16 2 49.783590082 29.370771908 65.3168764693
280 16 2 49.1958287087 30.0447491192 65.8393604958
281 16 2 48.5083114325 30.7813079749 66.0791506502
282 16 2 47.7680014673 31.5030123237 66.0176505736
283 16 2 47.0266737187 32.1337799007 65.6637244458
284 16 2 46.3361958561 32.6058167044 65.0528890765
285 16 2 45.7438009307 32.8657959548 64.2440767913
286 16 2 45.2877824063 32.8797184641 63.3142641541
287 16 2 44.9940039728 32.6360114296 62.3514560816
288 16 2 44.8735422481 32.146583215 61.4466647981
289 17 1 32.0736654835 61.2325886129 4.04910941608
290 17 1 30.1984949968 59.3260724837 8.86424875175
291 17 2 32.2142538316 61.768882099 4.04688123358
292 17 2 32.2642286947 62.7992600494 4.13919625644
293 17 2 32.0414490399 63.7855250965 4.36358153502
294 17 2 31.5742276881 64.6397258349 4.71677210415
295 17 2 30.9131566452 65.2859476153 5.18376327951
296 17 2 30.1264959871 65.6672316446 5.73917823173
297 17 2 29.2939524223 65.7507663892 6.34958091046
298 17 2 28.4994145715 65.5308781215 6.97652351106
299 17 2 27.8233070952 65.0295480411 7.58005072841
300 17 2 27.3352605373 64.2944088392 8.12234140904
301 17 2 27.0877649783 63.3944033056 8.57115568996
302 17 2 27.1113859243 62.4135006656 8.90277344111
303 17 2 27.4119784709 61.4430433613 9.10415619265
304 17 2 27.9701536512 60.5734218141 9.174135502
305 17 2 28.7430456074 59.8858359574 9.12351944945
306 17 2 29.6682185194 59.4448944193 8.9741075557
307 18 1 22.898915243 53.9983114596 24.4123471057
308 18 1 21.6203724994 49.2040646208 22.0212886312
309 18 2 22.5758562936 54.4258639078 24.2701761844
310 18 2 22.0192594049 55.1525538724 23.7855940244
311 18 2 21.553662989 55.7206147294 23.0553713793
312 18 2 21.2043723592 56.0699757741 22.1450740721
313 18 2 20.9860923539 56.1604992904 21.1366804965
314 18 2 20.9015870911 55.9756388282 20.1211098485
315 18 2 20.9414280384 55.5239472991 19.189935465
316 18 2 21.0848533587 54.8382974368 18.4270385421
317 18 2 21.3016602096 53.9728856733 17.900962939
318 18 2 21.5549575254 52.9982925053 17.6586678755
319 18 2 21.8045283844 51.995049566 17.7212479206
320 18 2 22.0104955062 51.0462997187 18.0820103674
321 18 2 22.1369557918 50.230219155 18.7070852277
322 18 2 22.1552526456 49.6128921712 19.5385122487
323 18 2 22.0465878268 49.2422880371 20.4995235931
324 18 2 21.8037347809 49.1438889264 21.5015407008
325 19 1 63.1614415084 30.7539928166 43.4294791117
326 19 1 59.0511001251 27.1329499246 42.8552169647
327 19 2 63.4741062369 30.6854193511 43.8821591301
328 19 2 63.85034709 30.5523936753 44.837902433
329 19 2 63.927965153 30.407643632 45.8605075045
330 19 2 63.7008855227 30.2453628249 46.8579031393
331 19 2 63.1908044015 30.0613426663 47.7403157991
332 19 2 62.4452116377 29.8533559616 48.4284518556
333 19 2 61.533062351 29.6213599025 48.8607246611
334 19 2 60.5384921461 29.3674999687 48.9988677486
335 19 2 59.5531487295 29.0959143821 48.8314225587
336 19 2 58.6678388491 28.8123569365 48.3747828081
337 19 2 57.9642518819 28.5236725785 47.671700315
338 19 2 57.5075144072 28.2371735376 46.787388464
339 19 2 57.3402543655 27.9599728666 45.8035784531
340 19 2 57.4787158139 27.6983361357 44.8110700554
341 19 2 57.9112783919 27.4571103686 43.9014558425
342 19 2 58.5995164374 27.2392822696 43.158773149
343 20 1 48.0018190327 41.0317740551 45.5338318028
344 20 1 49.5517815027 42.0803731153 50.7140529641
345 20 2 47.4551591692 41.0503814582 45.4432917023
346 20 2 46.4251597158 40.9433187499 45.4616485401
347 20 2 45.4620681403 40.6735276843 45.7306572188
348 20 2 44.6484598177 40.2803108186 46.2367404779
349 20 2 44.0532857496 39.8142201251 46.9447133341
350 20 2 43.7255881525 39.3324495264 47.8009899519
351 20 2 43.6900305968 38.8936220606 48.7384676245
352 20 2 43.9446500909 38.5524467938 49.6826427257
353 20 2 44.4610359945 38.3547324636 50.5584012045
354 20 2 45.1869194539 38.3332123269 51.2968647162
355 20 2 46.0509373496 38.5045607478 51.8416684109
356 20 2 46.9691365551 38.8678734438 52.1540982032
357 20 2 47.8526256891 39.4047499046 52.2166192959
358 20 2 48.6156769553 40.080970473 52.0344743561
359 20 2 49.1835396434 40.8496152316 51.6352056827
360 20 2 49.4992531436 41.6553404318 51.0661449139
361 21 1 58.8752483851 12.6533788528 41.6178803974
362 21 1 63.2477130014 15.129496097 39.3624355413
363 21 2 58.9934794177 12.2612821545 41.9915946649
364 21 2 59.3575428368 11.4489587769 42.5210158849
365 21 2 59.890501981 10.6048587833 42.7969651963
366 21 2 60.5587322474 9.81357720624 42.8032935403
367 21 2 61.3162799979 9.15489504182 42.5484259606
368 21 2 62.1090509178 8.69650775877 42.0645937187
369 21 2 62.8797403424 8.48785532063 41.4048966352
370 21 2 63.5730561836 8.55561607204 40.6384634052
371 21 2 64.1407584251 8.90127519051 39.844150992
372 21 2 64.5460558689 9.50098932271 39.1033573549
373 21 2 64.766959401 10.3077597426 38.492602584
374 21 2 64.7982861479 11.2557159633 38.0765546182
375 21 2 64.6521318608 12.2661193798 37.9021352062
376 21 2 64.3567684698 13.2545397537 37.9942433103
377 21 2 63.9540672922 14.13855045 38.3534857375
378 21 2 63.4956827486 14.8452410601 38.9561218323
379 22 1 57.2966889255 60.0921260495 58.0026073621
380 22 1 57.2234703205 56.2028113002 54.1033119458
381 22 2 56.8200936737 60.1584255753 58.2780017892
382 22 2 55.837414595 60.292704049 58.5763462056
383 22 2 54.8089003222 60.4145199012 58.5721557549
384 22 2 53.8222780409 60.4947608512 58.2674655268
385 22 2 52.961456769 60.508103886 57.6916991051
386 22 2 52.2988796247 60.4353232785 56.8989868104
387 22 2 51.8889211334 60.2650428814 55.9632320921
388 22 2 51.7629313619 59.9947729846 54.9713757358
389 22 2 51.9263785755 59.6311372355 54.0154718068
390 22 2 52.3583508424 59.1892689387 53.1842975532
391 22 2 53.0134620135 58.6914317591 52.5552619681
392 22 2 53.8259883582 58.1649905418 52.1873504912
393 22 2 54.7158588323 57.6399171934 52.1157488898
394 22 2 55.5959530043 57.1460589491 52.3486363175
395 22 2 56.3800414857 56.710418001 52.8664398409
396 22 2 56.9906451485 56.354690434 53.6236183774
397 23 1 12.2545107581 46.4367756846 56.0433607582
398 23 1 16.6545404211 44.0674861647 58.3591416335
399 23 2 12.3004693203 46.5387020813 55.500332608
400 23 2 12.5902285066 46.8280367999 54.5490054794
401 23 2 13.1288189574 47.2092800396 53.7507121814
402 23 2 13.8765591743 47.6322404875 53.1721905322
403 23 2 14.7747050917 48.0429245933 52.8601476708
404 23 2 15.7508041957 48.3884577111 52.8370030219
405 23 2 16.7252990738 48.6219032608 53.0988449188
406 23 2 17.6187785277 48.7065406759 53.6157871249
407 23 2 18.3592153596 48.6192122307 54.3346927597
408 23 2 18.8885311575 48.352433709 55.1840173605
409 23 2 19.1678897439 47.9150765386 56.0803296704
410 23 2 19.1812368277 47.3315592217 56.9359158246
411 23 2 18.9367632423 46.6396217556 57.6667738684
412 23 2 18.4661584076 45.8868858911 58.2002699592
413 23 2 17.8217220562 45.126514736 58.4817584431
414 23 2 17.071597472 44.4123673025 58.4795624321
415 24 1 15.8615538854 15.5276079017 8.63825552907
416 24 1 11.4515574917 15.1921662867 11.9209443138
417 24 2 15.9608995897 16.0309453404 8.42810652136
418 24 2 15.9191892351 16.9616507941 7.97561798458
419 24 2 15.5826490033 17.8147290941 7.49426950637
420 24 2 14.9775470367 18.523679093 7.04267258418
421 24 2 14.1546290383 19.0351359497 6.67672706516
422 24 2 13.1844931495 19.313734969 6.44452625824
423 24 2 12.1511554127 19.3453348512 6.38197355886
424 24 2 11.1443922855 19.1383065745 6.50951010055
425 24 2 10.2515581322 18.7227704374 6.83025168581
426 24 2 9.54962347194 18.1478508008 7.32970480202
427 24 2 9.09815964418 17.4771987385 7.97708760583
428 24 2 8.93390928911 16.7831906787 8.72813547704
429 24 2 9.06743750808 16.1403317886 9.52913543531
430 24 2 9.48216892702 15.6184653391 10.3218217101
431 24 2 10.1358984281 15.27640697 11.0486862659
432 24 2 10.964637857 15.1565840471 11.658220266
433 25 1 38.6810537816 63.8084290267 64.5038065469
434 25 1 41.5447857222 59.1075905017 64.6982068069
435 25 2 38.7571277011 64.1117067691 64.0459680149
436 25 2 39.1270946038 64.6470325311 63.2402080689
437 25 2 39.7634826195 65.0875469817 62.5519816648
438 25 2 40.6093990965 65.3795989377 62.0306092068
439 25 2 41.5888543004 65.4830685544 61.7102035058
440 25 2 42.6136873571 65.3750239742 61.6065606308
441 25 2 43.5916015128 65.0518114086 61.7157202052
442 25 2 44.4345763494 64.5293881556 62.0143263682
443 25 2 45.0668902429 63.8418682016 62.4617565012
444 25 2 45.4320218698 63.0384129653 63.0038237014
445 25 2 45.4978017384 62.1787505718 63.5777155459
446 25 2 45.2593442174 61.3277320429 64.1177190136
447 25 2 44.7394928276 60.5494205714 64.5612097768
448 25 2 43.9867382118 59.9012526006 64.8543599791
449 25 2 43.070798545 59.4288028858 64.9570442754
450 25 2 42.0762652006 59.1616306679 64.846496982
451 26 1 58.6167678393 10.6553967694 8.68789446339
452 26 1 57.8575582267 9.76088699546 3.30643667248
453 26 2 59.0163604831 10.3513932945 8.92302922877
454 26 2 59.6515165211 9.60474493603 9.25738129967
455 26 2 60.1026222041 8.6862733199 9.41741824606
456 26 2 60.3417836703 7.67945350662 9.37482801567
457 26 2 60.3604243204 6.67581288921 9.11976663416
458 26 2 60.1700665153 5.76658909878 8.66175541591
459 26 2 59.8012813923 5.03441431999 8.02881316146
460 26 2 59.3009025155 4.54578393398 7.26490243595
461 26 2 58.7277573172 4.3449959202 6.42592268274
462 26 2 58.1473053812 4.45011339941 5.57461537237
463 26 2 57.6256722504 4.85131830397 4.77484554769
464 26 2 57.2236225367 5.51180622742 4.08578096309
465 26 2 56.9910216434 6.37114089383 3.55649934934
466 26 2 56.9622908758 7.35076250993 3.22151531488
467 26 2 57.1532701748 8.36114795172 3.09763457595
468 26 2 57.5597744151 9.30997018337 3.18242223073
469 27 1 21.1062666172 65.207290349 3.36888940902
470 27 1 18.3933376607 60.8993596322 5.47088473345
471 27 2 21.61667995 65.2853932005 3.57077780865
472 27 2 22.4616571985 65.4133318062 4.15587902546
473 27 2 23.1034619233 65.492604956 4.96489122187
474 27 2 23.4898192557 65.4980570873 5.92582647313
475 27 2 23.5917366049 65.4112609176 6.95285010964
476 27 2 23.4061461347 65.2221969643 7.95410395858
477 27 2 22.9561843754 64.9301667522 8.84007858661
478 27 2 22.2890834878 64.5438564746 9.53177147098
479 27 2 21.4718663754 64.0805453065 9.96788753788
480 27 2 20.5852380065 63.5645305259 10.1104257881
481 27 2 19.7162297095 63.024912984 9.94814282779
482 27 2 18.9502668639 62.4929447618 9.4975776263
483 27 2 18.363382963 61.999180757 8.80154410294
484 27 2 18.0152896821 61.5706938153 7.92522893157
485 27 2 17.9439345684 61.2286072252 6.95025022221
486 27 2 18.1620423827 60.9861694757 5.96721858994
487 28 1 57.2117064388 9.09667229828 15.3711365405
488 28 1 58.2020294033 6.44092363473 20.0937305723
489 28 2 56.7993853848 9.46677020045 15.3911276101
490 28 2 55.909572283 9.97974286373 15.5245066254
491 28 2 54.9383987787 10.2268147986 15.7861853492
492 28 2 53.9768701871 10.1930553804 16.1696189686
493 28 2 53.1151127562 9.88912983729 16.6571655463
494 28 2 52.4341592763 9.35032718701 17.2216939631
495 28 2 51.9985634975 8.6333438855 17.8290567327
496 28 2 51.8505164974 7.81111633338 18.4412023113
497 28 2 52.0060012541 6.96617322316 19.0196432349
498 28 2 52.453335907 6.18311361471 19.5289639875
499 28 2 53.1542384783 5.54089631102 19.940048883
500 28 2 54.0473160133 5.1056433046 20.2327357603
501 28 2 55.0536601264 4.92461321126 20.3976536254
502 28 2 56.0840389605 5.02189397126 20.4370767544
503 28 2 57.0470300581 5.39620739868 20.3647174077
504 28 2 57.8573528921 6.02102567936 20.2044760521
505 29 1 33.1281123672 61.5751476559 8.04532495115
506 29 1 28.6557207188 64.0105826284 5.94699123958
507 29 2 33.4582789144 61.3291101755 7.67406175475
508 29 2 33.8744781483 60.7704956584 6.9076243535
509 29 2 33.996733242 60.1388151027 6.09600151088
510 29 2 33.8130946194 59.5038996589 5.29859477235
511 29 2 33.3394928198 58.9358753156 4.5735099829
512 29 2 32.6182865377 58.498771396 3.97226133775
513 29 2 31.7144019188 58.2446847245 3.53507621657
514 29 2 30.7094149867 58.2090313579 3.28722873368
515 29 2 29.6941165476 58.407318655 3.23673617577
516 29 2 28.7602372309 58.8337318869 3.37362828122
517 29 2 27.9920868712 59.46166421 3.67085596107
518 29 2 27.4588702451 60.246141697 4.08675663801
519 29 2 27.2083795298 61.1279224022 4.56885150471
520 29 2 27.2626383743 62.0388958589 5.05862860727
521 29 2 27.6158945948 62.9082908809 5.49687580865
522 29 2 28.2351444462 63.6691258715 5.82907756902
523 30 1 20.6481420757 45.0177335622 43.103463149
524 30 1 17.4970508216 48.3844940608 46.1154695535
525 30 2 21.0837423852 45.2586464677 42.859344133
526 30 2 21.7365881532 45.8639080762 42.3300530415
527 30 2 22.1333453702 46.6320063473 41.7596961113
528 30 2 22.2434937438 47.5051993621 41.2137111612
529 30 2 22.0626354125 48.4161665365 40.7553146709
530 30 2 21.6128957809 49.2941444307 40.4397400328
531 30 2 20.9409069406 50.0713763516 40.3092034066
532 30 2 20.1135574749 50.6892879108 40.3890560056
533 30 2 19.2118960228 51.1038256787 40.6854735081
534 30 2 18.3237442513 51.2894723523 41.184893186
535 30 2 17.535692513 51.2415724826 41.8552500546
536 30 2 16.9252077284 50.9767567867 42.6488993764
537 30 2 16.5535728077 50.5314263722 43.5069591521
538 30 2 16.4603011337 49.9584350256 44.3646768112
539 30 2 16.6595351876 49.322271952 45.1573309645
540 30 2 17.138757559 48.6931840266 45.8261303155
541 31 1 24.4827592416 45.4649516065 55.3963051091
542 31 1 25.7355789083 44.1445213639 50.1978878708
543 31 2 24.1083824809 45.8699782352 55.4526630966
544 31 2 23.5491255192 46.7405297091 55.4071652593
545 31 2 23.2061084312 47.6854876625 55.1579825659
546 31 2 23.0985359773 48.6148132466 54.7135949008
547 31 2 23.2241537537 49.4398923959 54.1002737429
548 31 2 23.5594536661 50.0816123925 53.3596877007
549 31 2 24.0618165308 50.4775724484 52.5451047047
550 31 2 24.6733965216 50.587771109 51.7165370001
551 31 2 25.3263934201 50.398252112 50.9352714426
552 31 2 25.9492321405 49.9223764042 50.2582836213
553 31 2 26.4730863085 49.1996043838 49.7330449248
554 31 2 26.8381513126 48.2918993548 49.3931958492
555 31 2 26.9990950855 47.2780799972 49.2554798978
556 31 2 26.9291898103 46.2466365845 49.3182175255
557 31 2 26.622747978 45.2876657019 49.5614592177
558 31 2 26.0956407655 44.4846585604 49.9488037521
559 32 1 3.96407267179 48.3230396978 11.5680318634
560 32 1 0.102765338927 51.5769564541 13.7677969308
561 32 2 4.27554185721 48.046658869 11.9340664732
562 32 2 4.88273378606 47.7426072685 12.7160951535
563 32 2 5.4631647799 47.7340798015 13.5738395297
564 32 2 5.95107285826 48.0172808092 14.442425258
565 32 2 6.28912887005 48.5618255822 15.2559898799
566 32 2 6.43366165267 49.3135097191 15.9536857336
567 32 2 6.35863835902 50.1992494852 16.485225801
568 32 2 6.05803717306 51.1337428946 16.8154670246
569 32 2 5.54639615705 52.0272444011 16.9276133566
570 32 2 4.85748820684 52.7937445891 16.8247466033
571 32 2 4.041242884 53.3588093428 16.5295455393
572 32 2 3.15919567853 53.666364005 16.0822188934
573 32 2 2.27887947092 53.6838041977 15.5368405977
574 32 2 1.46766937307 53.4049674881 14.9564213203
575 32 2 0.786641948759 52.8506950513 14.4071654744
576 32 2 0.285008503639 52.0669321409 13.9524371401
577 33 1 63.6638194395 30.9783200613 47.6718721461
578 33 1 59.2783089294 27.6536950846 47.8972634897
579 33 2 63.9870784576 30.9725047722 48.122261468
580 33 2 64.3875305246 30.9943647458 49.0771743198
581 33 2 64.4919888757 31.0412993164 50.1065352235
582 33 2 64.2905644358 31.0905766663 51.1212756873
583 33 2 63.801247249 31.1192514495 52.0336597723
584 33 2 63.0682668096 31.1062561027 52.7652806219
585 33 2 62.1580608466 31.0343210093 53.2542067088
586 33 2 61.1532199807 30.8915485065 53.4606264697
587 33 2 60.1449601549 30.6724972755 53.3704768558
588 33 2 59.224808927 30.3786782809 52.9967250835
589 33 2 58.4762633602 30.0184170562 52.3781867617
590 33 2 57.9671798383 29.6060948886 51.5759881149
591 33 2 57.7435894215 29.1608380634 50.6679947469
592 33 2 57.8255024308 28.704774634 49.7417147253
593 33 2 58.2050846443 28.2610176019 48.8863228206