LAMMPS input file for bananas

648 atoms

2 atom types

0 53.5546360066 xlo xhi
0 53.5546360066 ylo yhi
0 53.5546360066 zlo zhi

Masses

 1 1
 2 1

Atoms

1 1 1 4.17043542992 39.3295894419 45.11278548
2 1 1 6.18785447171 40.9753001468 49.9851204178
3 1 2 4.28645363268 39.6647895345 44.6866842449
4 1 2 4.42088176824 40.4582219113 44.0341168913
5 1 2 4.45294282636 41.4089437685 43.6235684167
6 1 2 4.39769039429 42.4357161355 43.4965420953
7 1 2 4.27813645051 43.450368241 43.6686989148
8 1 2 4.12315388447 44.3658340432 44.1284301194
9 1 2 3.96484480982 45.1040880666 44.8379153166
10 1 2 3.83561454258 45.6032572159 45.7365697049
11 1 2 3.76521794321 45.8232603428 46.7465662168
12 1 2 3.77804734057 45.7494615361 47.7799292478
13 1 2 3.89090923639 45.3940041454 48.7465533976
14 1 2 4.11149243749 44.7947039474 49.5624163366
15 1 2 4.43766724168 44.0116023389 50.1572372165
16 1 2 4.85767955431 43.1214937243 50.4808825821
17 1 2 5.3512222427 42.2109259104 50.5079359012
18 1 2 5.8912860769 41.3683115052 50.2400142143
19 2 1 49.8158534357 10.0801438873 30.9463020106
20 2 1 45.261281574 9.01955181457 33.8872220492
21 2 2 50.0358268507 10.5822488919 31.0292709754
22 2 2 50.226877179 11.5939494556 31.1450800974
23 2 2 50.1152950707 12.621506118 31.2166814219
24 2 2 49.7086145081 13.5735988258 31.2564357551
25 2 2 49.0412669092 14.3657858631 31.2796066714
26 2 2 48.1714427956 14.9282004887 31.3029692793
27 2 2 47.1757878819 15.2119191025 31.3432812153
28 2 2 46.1424170239 15.1934205009 31.4157552297
29 2 2 45.1628827849 14.876729772 31.5326725854
30 2 2 44.3238306644 14.293051419 31.7022636536
31 2 2 43.699101592 13.4979251537 31.9279577373
32 2 2 43.3430015245 12.5661635997 32.2080704997
33 2 2 43.2853516029 11.5850333222 32.5359574867
34 2 2 43.528770035 10.6463007134 32.9006197515
35 2 2 44.0484334529 9.83786773155 33.2877063789
36 2 2 44.7943394966 9.23575987196 33.6808225331
37 3 1 21.4875007563 19.2996298287 21.3769323837
38 3 1 21.1088083215 14.3526671248 23.8063650557
39 3 2 21.0160748639 19.5912123403 21.3660303192
40 3 2 20.0452459642 19.9368141465 21.258789235
41 3 2 19.0295653687 19.9929711811 21.0620932093
42 3 2 18.0540665101 19.7504245982 20.811049103
43 3 2 17.2001203634 19.2271415882 20.5457174594
44 3 2 16.5380186985 18.4666777165 20.3074610927
45 3 2 16.1205671736 17.5342069501 20.1351749778
46 3 2 15.9782722407 16.5105812248 20.0617410774
47 3 2 16.1165605637 15.4849610071 20.1110312395
48 3 2 16.5152843928 14.5466885564 20.2957313413
49 3 2 17.1305579777 13.7771446164 20.6161850062
50 3 2 17.8987576367 13.2423307781 21.060362283
51 3 2 18.7423208855 12.9868536111 21.6049561443
52 3 2 19.5768160495 13.0298588939 22.2175068589
53 3 2 20.3186379862 13.3632865277 22.8593606105
54 3 2 20.8926284699 13.9526051925 23.4891926891
55 4 1 35.7419525984 12.7278219778 5.12806787813
56 4 1 34.0398268029 7.47481516629 5.2914027366
57 4 2 35.4924814178 13.0655663789 5.49010991662
58 4 2 34.8296698664 13.6036651464 6.07711977586
59 4 2 33.9638933082 13.9684179761 6.51396795958
60 4 2 32.9723724445 14.1152182893 6.7762389191
61 4 2 31.9437892343 14.0193252968 6.85542935312
62 4 2 30.9702037702 13.6781190556 6.7597232609
63 4 2 30.1386632471 13.1113392695 6.51324599263
64 4 2 29.5232678435 12.3592860681 6.1538652882
65 4 2 29.1784166878 11.4791467576 5.72973973396
66 4 2 29.1338495233 10.5397833508 5.29492923625
67 4 2 29.3919360101 9.61545597838 4.90446760547
68 4 2 29.9274597369 8.77905427682 4.60934637133
69 4 2 30.6899166295 8.09545369267 4.4518670412
70 4 2 31.6081182623 7.61560225904 4.46178543078
71 4 2 32.5966804926 7.37187681852 4.65359950105
72 4 2 33.5638059976 7.37513196056 5.02522790785
73 5 1 50.6901023885 41.8487524784 49.4403744619
74 5 1 52.8905907978 38.7312186619 45.4457750171
75 5 2 50.1879803092 41.6882268754 49.6120909037
76 5 2 49.2003221441 41.3886917725 49.702975898
77 5 2 48.2294443073 41.0976410387 49.4881836555
78 5 2 47.3655021954 40.8224671852 48.9868520399
79 5 2 46.6889042997 40.5691155879 48.2442362127
80 5 2 46.2629831868 40.3415425825 47.3275837464
81 5 2 46.1282229045 40.1413548547 46.3200051881
82 5 2 46.2985689694 39.9676629957 45.312898755
83 5 2 46.7601572696 39.8171625687 44.3976196316
84 5 2 47.4725777422 39.6844353001 43.6571531883
85 5 2 48.3725576419 39.5624429404 43.1585510871
86 5 2 49.3797286833 39.4431687817 42.9468197016
87 5 2 50.4039523947 39.3183483596 43.0408179063
88 5 2 51.353535999 39.1802227365 43.431538141
89 5 2 52.1435899657 39.0222457084 44.0829274252
90 5 2 52.703765464 38.839680474 44.9351734914
91 6 1 41.3444529453 21.7306631732 36.4241238183
92 6 1 41.224307854 17.7031535162 32.6448749271
93 6 2 41.8242510146 22.0066040891 36.4562487562
94 6 2 42.8133150764 22.3063535977 36.5294097083
95 6 2 43.8471035415 22.3031640602 36.5981210424
96 6 2 44.8365385124 21.9983578493 36.6376384236
97 6 2 45.6965847939 21.4207488914 36.6258784681
98 6 2 46.3540006243 20.6240163541 36.5454315839
99 6 2 46.7540134656 19.6818119336 36.3851488092
100 6 2 46.8653123746 18.6810466993 36.1411580104
101 6 2 46.6829019111 17.7139693825 35.8172168162
102 6 2 46.2285574593 16.8697581507 35.4243701203
103 6 2 45.5488404596 16.2263922562 34.9799433689
104 6 2 44.7108544579 15.8435444356 34.5059633922
105 6 2 43.7961287965 15.7571418994 34.0271507178
106 6 2 42.8931874324 15.9760916627 33.568666361
107 6 2 42.0894802157 16.4814686946 33.1538184652
108 6 2 41.4634120691 17.2282408844 32.801937827
109 7 1 28.0153942048 15.2018492158 44.417723294
110 7 1 22.5073468232 14.7812366648 44.4676250437
111 7 2 28.2359880751 15.3224059942 43.9235714998
112 7 2 28.51436844 15.3687418474 42.9266726222
113 7 2 28.5861585121 15.1899844814 41.9086637809
114 7 2 28.4319870684 14.8148631779 40.9552671243
115 7 2 28.0530786742 14.2900052667 40.1463155727
116 7 2 27.4711420669 13.6756861691 39.5484762609
117 7 2 26.7263914632 13.0403354547 39.2091740076
118 7 2 25.8738811401 12.4542996685 39.1522686695
119 7 2 24.9784873853 11.9834304316 39.3758803793
120 7 2 24.1089951965 11.6830822421 39.8525608906
121 7 2 23.3318287129 11.5930670603 40.5317954119
122 7 2 22.7049968324 11.7340255551 41.3446068953
123 7 2 22.2728058559 12.1055457619 42.2098431098
124 7 2 22.0618210857 12.6862006326 43.0415734502
125 7 2 22.0784454701 13.4355010532 43.7569212822
126 7 2 22.3083359909 14.2975863187 44.283617926
127 8 1 9.85554755701 36.2305043878 44.6389531442
128 8 1 8.70357828015 38.4288122517 39.7035301246
129 8 2 9.44096455327 36.2513607148 45.0064684972
130 8 2 8.6591668424 36.5173869917 45.6321460263
131 8 2 7.91811686494 37.0533468142 46.1190156298
132 8 2 7.27009103475 37.8069611808 46.4115526719
133 8 2 6.75888686332 38.7061124603 46.4719454106
134 8 2 6.4158309336 39.6654177207 46.2835414363
135 8 2 6.25692356576 40.5940111556 45.8523654951
136 8 2 6.28138043072 41.4038262593 45.2065703489
137 8 2 6.47170403969 42.0176228535 44.3938707267
138 8 2 6.79527859347 42.3760273232 43.4771942541
139 8 2 7.20734282538 42.4429443629 42.5289457689
140 8 2 7.65506987112 42.2088469672 41.6244078133
141 8 2 8.08238229621 41.6916447921 40.8348788318
142 8 2 8.43506340428 40.9350517375 40.2211745081
143 8 2 8.66569894403 40.0046015421 39.8280845784
144 8 2 8.73799879153 38.9816745584 39.6802903664
145 9 1 8.05756605766 11.9286735551 13.0128511392
146 9 1 11.3986652291 7.73490702018 14.3422756911
147 9 2 7.54179945947 11.8886834691 13.2122682831
148 9 2 6.58702687812 11.5985005394 13.4909315142
149 9 2 5.72326999131 11.0461263711 13.6401187449
150 9 2 5.03237940446 10.274396462 13.6636380069
151 9 2 4.58044942179 9.34613999976 13.5767516315
152 9 2 4.41179372711 8.33845314872 13.4047851288
153 9 2 4.54490631003 7.33567194095 13.1808188349
154 9 2 4.97077578818 6.42168527224 12.9426727281
155 9 2 5.6537067707 5.67228865348 12.7294592387
156 9 2 6.53457339765 5.1482756524 12.5780182554
157 9 2 7.53620850413 4.8898967224 12.5195592683
158 9 2 8.57043720113 4.91319048125 12.576816707
159 9 2 9.54611378097 5.20852183399 12.761977758
160 9 2 10.377429405 5.74146018609 13.0755715356
161 9 2 10.9917333497 6.45591770005 13.5064208542
162 9 2 11.3361549263 7.27926155198 14.0326609993
163 10 1 14.4231155871 8.41987679575 2.26333122061
164 10 1 12.2420153054 6.2484633836 6.85089663335
165 10 2 14.4786090072 8.9714779119 2.26951806499
166 10 2 14.3568071429 9.99738037916 2.34786629209
167 10 2 13.9570546948 10.9372704891 2.5218047087
168 10 2 13.3210615059 11.7086637361 2.79367808608
169 10 2 12.5120701313 12.2444336534 3.15690468561
170 10 2 11.6090914481 12.4989302109 3.59657616661
171 10 2 10.6997030258 12.4521406935 4.09081644179
172 10 2 9.87206666418 12.1115138067 4.6127756241
173 10 2 9.20689268126 11.5112807465 5.1330773222
174 10 2 8.77008338349 10.709335118 5.62249622002
175 10 2 8.60672624663 9.78195608778 6.05462188618
176 10 2 8.73698431285 8.81685574167 6.40826601423
177 10 2 9.15425838331 7.90518436262 6.66939368017
178 10 2 9.82578851752 7.13322232604 6.83240258823
179 10 2 10.6956400143 6.5745158742 6.90063370519
180 10 2 11.6898017105 6.28317357278 6.88606674015
181 11 1 18.0883243149 42.527609675 3.48152130305
182 11 1 14.2585109325 39.5637592909 6.13973713664
183 11 2 18.1409656852 43.0512839594 3.65580761374
184 11 2 18.0057447521 44.0342366688 3.95408480271
185 11 2 17.5767750736 44.9422605753 4.20889377291
186 11 2 16.8908471082 45.6906368063 4.41598277405
187 11 2 16.0081723754 46.2091979479 4.57544960344
188 11 2 15.0068953368 46.4487236177 4.69173269209
189 11 2 13.9759707371 46.3854267705 4.77320655353
190 11 2 13.007055617 46.0231218242 4.83141846935
191 11 2 12.1861550189 45.3928769858 4.88003598527
192 11 2 11.5857828569 44.5501824674 4.93360115095
193 11 2 11.2583524679 43.5698927015 5.00620505097
194 11 2 11.2313992755 42.5394035595 5.11020344019
195 11 2 11.50507101 41.5506864521 5.25509054966
196 11 2 12.0521142431 40.6919053805 5.4466337129
197 11 2 12.8203584649 40.0393810235 5.68634768879
198 11 2 13.737471287 39.6506343117 5.97135659541
199 12 1 44.2981138543 18.3988690998 47.8846299001
200 12 1 38.9479407679 17.2240816051 48.6012283578
201 12 2 44.4117158759 18.9369279738 47.8141400651
202 12 2 44.4539395232 19.9295925138 47.520398196
203 12 2 44.2620251224 20.8328860468 47.050632651
204 12 2 43.8411346409 21.5726982059 46.4598880505
205 12 2 43.217300604 22.0898195147 45.8142359324
206 12 2 42.4350532994 22.3453381727 45.1847525084
207 12 2 41.553361961 22.3241867616 44.6410402567
208 12 2 40.6402598804 22.0365156005 44.2448838423
209 12 2 39.7666433544 21.5167675716 44.0446186102
210 12 2 38.9998096773 20.8205387429 44.0707249478
211 12 2 38.3973231717 20.0195109359 44.3330500786
212 12 2 38.0017683552 19.1949181188 44.8199105148
213 12 2 37.8368684748 18.4301421475 45.4991569754
214 12 2 37.9053231964 17.8031127322 46.3211047077
215 12 2 38.1885625381 17.3792043528 47.2230621193
216 12 2 38.6484394735 17.2052775496 48.1350449495
217 13 1 5.54899013194 27.2509495462 5.01482956791
218 13 1 7.72666896686 26.7348298189 10.0655054019
219 13 2 5.16508996749 26.8722067273 4.88615894609
220 13 2 4.61128879464 26.0125115469 4.71979047255
221 13 2 4.30607622408 25.0233447837 4.67684384883
222 13 2 4.26796715258 23.9929180382 4.77793010894
223 13 2 4.49113070688 23.0132036481 5.0305320745
224 13 2 4.94592171217 22.1715516554 5.42832231554
225 13 2 5.58158277059 21.5427280836 5.95173987884
226 13 2 6.33087066236 21.1821002145 6.56977321653
227 13 2 7.11618538554 21.1205900085 7.24278680576
228 13 2 7.85664318878 21.3618556503 7.92613382075
229 13 2 8.47544890911 21.8819581154 8.57422557154
230 13 2 8.90689564576 22.6315431482 9.14468679129
231 13 2 9.10235376857 23.5403397703 9.60221802859
232 13 2 9.03470337876 24.5235652925 9.92181309806
233 13 2 8.70080621527 25.4896530303 10.0910383274
234 13 2 8.12179169885 26.3485983625 10.1111658532
235 14 1 21.6753458024 43.4297066656 36.5178059914
236 14 1 19.7228368547 45.6206953256 41.1981124517
237 14 2 22.217719979 43.5065960893 36.4323667902
238 14 2 23.1793536611 43.8750736491 36.3186348219
239 14 2 24.0024734351 44.5035775335 36.2885230952
240 14 2 24.6191140704 45.332870052 36.362538342
241 14 2 24.9801303578 46.2854121671 36.5516963988
242 14 2 25.0596765643 47.2724309697 36.8565181426
243 14 2 24.8575622023 48.2020110929 37.2669820149
244 14 2 24.3992693924 48.9874725519 37.763437459
245 14 2 23.733630236 49.555271393 38.3183960166
246 14 2 22.9283758997 49.8517030282 38.899036827
247 14 2 22.0639631006 49.8477972652 39.4701981605
248 14 2 21.2262406916 49.5419588627 39.9975823167
249 14 2 20.498624768 48.9601129325 40.4508817678
250 14 2 19.9544955129 48.1533419349 40.8065416088
251 14 2 19.6505087905 47.1932296489 41.0499065242
252 14 2 19.6214321144 46.1653365021 41.1765565809
253 15 1 43.0306527425 43.0846465456 19.9880809399
254 15 1 46.8365040943 46.6193402796 21.8694173681
255 15 2 43.1946829881 42.7695051815 19.562450129
256 15 2 43.5679396346 42.3865481834 18.6750531352
257 15 2 44.0130718203 42.2980252672 17.7436718804
258 15 2 44.5077488273 42.5082579666 16.8579253693
259 15 2 45.0251240598 42.9943370393 16.1032731215
260 15 2 45.5362820392 43.7082105834 15.553225765
261 15 2 46.0128739731 44.5810638396 15.2626447388
262 15 2 46.4297016716 45.5295914731 15.2627418194
263 15 2 46.7670142952 46.4635906316 15.5582342509
264 15 2 47.012308591 47.2941826946 16.1269147803
265 15 2 47.1614685307 47.9419143218 16.9216757901
266 15 2 47.2191404756 48.343999413 17.874803031
267 15 2 47.1983096732 48.4600418934 18.9041475951
268 15 2 47.1191166865 48.2757177072 19.9206135691
269 15 2 47.0070216358 47.8040804178 20.836278889
270 15 2 46.8904835764 47.0843714099 21.5724092008
271 16 1 30.7446387169 46.6600474733 50.7396219145
272 16 1 36.2459394375 46.5406193761 50.2503179469
273 16 2 30.502772828 47.1195575484 50.5453721506
274 16 2 30.2119643181 48.0868995338 50.314872899
275 16 2 30.1621938961 49.1203921932 50.2613393656
276 16 2 30.3685112337 50.1294487361 50.3739806576
277 16 2 30.8226242873 51.0257096585 50.6268594913
278 16 2 31.4936550964 51.7310964761 50.9812563057
279 16 2 32.3309542268 52.1849283687 51.3891984471
280 16 2 33.2687173311 52.3494530753 51.7978327484
281 16 2 34.2319830393 52.2132879118 52.1542429543
282 16 2 35.1434654872 51.792457272 52.4102728957
283 16 2 35.9305987164 51.1289320468 52.5269157966
284 16 2 36.5321508673 50.2868040903 52.4778696373
285 16 2 36.9038052996 49.3464444178 52.2519345128
286 16 2 37.0221999358 48.3971776033 51.8540334747
287 16 2 36.8870566517 47.5291400827 51.304763808
288 16 2 36.521206627 46.8250644591 50.6385196435
289 17 1 22.7973961061 21.3030779179 36.6926918994
290 17 1 23.3542809281 17.4837675861 40.6449999524
291 17 2 23.2204691194 21.6588932218 36.650427457
292 17 2 23.9794319801 22.3473990807 36.8033492321
293 17 2 24.6491724845 23.0015238818 37.2472167942
294 17 2 25.1837178 23.5501876707 37.9448408789
295 17 2 25.5494177746 23.9319229823 38.8359029933
296 17 2 25.7280120575 24.1004774362 39.8424532848
297 17 2 25.7182944819 24.0290295174 40.8760154623
298 17 2 25.5362230034 23.7126332857 41.8456511735
299 17 2 25.2134651753 23.1686691847 42.6662487925
300 17 2 24.7945117354 22.4352598614 43.2662811174
301 17 2 24.3326213947 21.5677953883 43.5943248831
302 17 2 23.8849664479 20.6338846064 43.6237478549
303 17 2 23.5074216715 19.7071927604 43.3551362851
304 17 2 23.2494714873 18.860727108 42.816241478
305 17 2 23.1496995898 18.1601825041 42.0594503328
306 17 2 23.2322721454 17.6579534897 41.1570104171
307 18 1 5.65227208425 35.7805477482 13.925862259
308 18 1 4.84589947904 36.2179036312 19.3734740399
309 18 2 6.07918006446 36.0741811043 13.7286045172
310 18 2 6.77646582155 36.7988669897 13.479460078
311 18 2 7.29850491839 37.6916254521 13.4169499171
312 18 2 7.61067875926 38.6690221409 13.5608012884
313 18 2 7.69749740558 39.6399081571 13.9119321436
314 18 2 7.56401144245 40.5137280322 14.4523674632
315 18 2 7.2353516313 41.208773617 15.1468776321
316 18 2 6.75443830814 41.6596315612 15.9461895243
317 18 2 6.17806930968 41.8231455651 16.7914776168
318 18 2 5.57174300228 41.6823499612 17.6197257789
319 18 2 5.00368828097 41.2480160894 18.369471024
320 18 2 4.53864568796 40.5576705183 18.9864056967
321 18 2 4.23196648534 39.6721745984 19.4283274699
322 18 2 4.1245675354 38.670177113 19.668985975
323 18 2 4.23920183803 37.6409456518 19.7004754521
324 18 2 4.5783846556 36.6762301086 19.5339553391
325 19 1 43.8578389096 8.53235749452 33.352149508
326 19 1 44.3727276852 5.45001137551 37.9075883467
327 19 2 43.9550133644 9.07344368016 33.4240136373
328 19 2 43.9852719244 10.0607078626 33.7368136768
329 19 2 43.8293725677 10.9375319188 34.2662709237
330 19 2 43.5161681069 11.6237090666 34.9765623419
331 19 2 43.0888492944 12.05640948 35.815382344
332 19 2 42.6010081008 12.19590706 36.7187103056
333 19 2 42.1117529499 12.0292003621 37.6166458742
334 19 2 41.680321144 11.5711976434 38.4397801997
335 19 2 41.3606795422 10.8633580146 39.1255223651
336 19 2 41.1966056248 9.96991255312 39.6238043818
337 19 2 41.2176972941 8.97200981186 39.9016447526
338 19 2 41.4366751035 7.96031934564 39.9461546472
339 19 2 41.848222814 7.02676742354 39.7657126845
340 19 2 42.4294719547 6.2561581952 39.3892012441
341 19 2 43.1420862229 5.71844401922 38.8633739142
342 19 2 43.9357557357 5.46234949264 38.2485940274
343 20 1 36.7014271801 11.872932883 52.5707774169
344 20 1 36.2519061168 11.7651539175 47.0658427607
345 20 2 37.1929060703 11.7091328219 52.768260653
346 20 2 38.0758723885 11.2176595352 52.9968968281
347 20 2 38.8521794895 10.5317344704 53.0143353366
348 20 2 39.4631517361 9.72131894697 52.8060336214
349 20 2 39.865183321 8.86772125701 52.3780247435
350 20 2 40.0337128199 8.05618563162 51.7563674843
351 20 2 39.9654618996 7.36812245716 50.9847711578
352 20 2 39.6787341292 6.8736879361 50.1206116233
353 20 2 39.2117466585 6.62538953666 49.2297016288
354 20 2 38.6191468277 6.65330007746 48.3802921555
355 20 2 37.9670312074 6.96231667046 47.6368515229
356 20 2 37.3269210736 7.53171436227 47.0541892739
357 20 2 36.7692434342 8.31703515831 46.6724604316
358 20 2 36.3569117957 9.25414025013 46.5135054759
359 20 2 36.1395917649 10.2650560964 46.5788596425
360 20 2 36.1491741619 11.2650815029 46.8496129901
361 21 1 28.5092949599 30.5929482732 24.5445340894
362 21 1 32.9820402857 27.411015351 23.9217635137
363 21 2 28.129493795 30.5430614163 24.1437299418
364 21 2 27.6043037718 30.4828647548 23.2526621483
365 21 2 27.3609276693 30.4543940727 22.245980717
366 21 2 27.4221771026 30.4413900746 21.211800165
367 21 2 27.7830978831 30.4261837183 20.2407414808
368 21 2 28.4114215802 30.3913067004 19.4176722635
369 21 2 29.2505067018 30.3210836459 18.8139712676
370 21 2 30.2245014156 30.2030608765 18.4810224207
371 21 2 31.2452572403 30.0291415303 18.4455313157
372 21 2 32.2203635444 29.7963235687 18.7070910671
373 21 2 33.0615705283 29.5069734047 19.2382193982
374 21 2 33.6928329574 29.1686102103 19.9868635763
375 21 2 34.0572414822 28.7932205645 20.8811448811
376 21 2 34.1222097734 28.396165908 21.835910157
377 21 2 33.8824446786 27.9947823896 22.7604932964
378 21 2 33.3604286789 27.6068007221 23.5669792126
379 22 1 48.1709913901 26.6252898582 47.0672926908
380 22 1 48.290077303 21.4090205589 48.8823255293
381 22 2 48.3766024606 27.0001735802 47.4202344292
382 22 2 48.6167362464 27.5957832576 48.2332749498
383 22 2 48.6634486092 27.9995832236 49.186277339
384 22 2 48.5273732177 28.1652598295 50.1999265689
385 22 2 48.235804356 28.0682037347 51.1893798142
386 22 2 47.8302091225 27.7077529819 52.0719996488
387 22 2 47.3624478144 27.1072533329 52.7748862267
388 22 2 46.8900470006 26.3119303648 53.2415219077
389 22 2 46.4709561286 25.3847672795 53.4369226893
390 22 2 46.158265587 24.4007641533 53.3508269055
391 22 2 45.9953676587 23.4401018803 52.9986305494
392 22 2 46.0120014304 22.580833898 52.4199839704
393 22 2 46.2215421542 21.8917718255 51.6751778503
394 22 2 46.6197821288 21.4262134682 50.8396478689
395 22 2 47.185314221 21.217084865 49.9970989438
396 22 2 47.8814830678 21.2739391684 49.2318757502
397 23 1 5.24362461448 18.764072676 14.9681733134
398 23 1 8.21584262044 14.5447878664 16.9383374899
399 23 2 5.05948464271 18.6979659431 14.4494210038
400 23 2 4.93996461718 18.5202529296 13.4357232877
401 23 2 5.11723731189 18.2708594498 12.445861027
402 23 2 5.57064887667 17.9538383573 11.5698669683
403 23 2 6.25437614139 17.5794065817 10.8873950757
404 23 2 7.10160327546 17.1630138833 10.4604602854
405 23 2 8.03061187218 16.7239346479 10.3277860097
406 23 2 8.95222936313 16.2835110788 10.5012746011
407 23 2 9.77795685942 15.8632079118 10.9649224856
408 23 2 10.4280355889 15.4826559614 11.6762788449
409 23 2 10.8387166949 15.1578628255 12.5703148951
410 23 2 10.9680717746 14.8997538347 13.5653510871
411 23 2 10.7998145403 14.7131762381 14.5705019786
412 23 2 10.3447852712 14.5964573895 15.4939601996
413 23 2 9.63996275127 14.5415572044 16.2513644485
414 23 2 8.74509375149 14.5348009925 16.7734887996
415 24 1 48.4830037071 19.4307012321 28.9759987902
416 24 1 45.6708130157 15.5769017312 31.7612822558
417 24 2 48.3938883427 19.9516411046 29.1435150254
418 24 2 48.0009759963 20.8649137787 29.4350676313
419 24 2 47.3452236693 21.6249903707 29.6914315742
420 24 2 46.4851296294 22.1603993616 29.9082851335
421 24 2 45.4978173453 22.4201470841 30.0849078543
422 24 2 44.4720058886 22.3783656583 30.2242462155
423 24 2 43.4999234275 22.0366707807 30.3326450654
424 24 2 42.6689008761 21.4240144569 30.4192693062
425 24 2 42.0534119144 20.5940461044 30.4952685374
426 24 2 41.7082849121 19.6202225513 30.5727607999
427 24 2 41.6637054687 18.5891126424 30.6637280487
428 24 2 41.9224650771 17.5925067212 30.7789240298
429 24 2 42.4597066863 16.7190501846 30.9268941049
430 24 2 43.2251903554 16.0461636924 31.1131963649
431 24 2 44.1478724897 15.6329864808 31.3398950243
432 24 2 45.1423812744 15.5149859794 31.6053722738
433 25 1 21.8539677646 26.2301761102 28.0224759617
434 25 1 19.7785997841 24.6095019037 32.8788381726
435 25 2 22.1677372681 26.6867934604 28.0432336638
436 25 2 22.5705273257 27.6284677353 28.1996297653
437 25 2 22.7110602685 28.6069738443 28.5098334046
438 25 2 22.5859073672 29.530657477 28.9621555344
439 25 2 22.2158564471 30.3128612455 29.5319533865
440 25 2 21.6440171332 30.8798232731 30.1838765948
441 25 2 20.9318915235 31.1774003927 30.8750892864
442 25 2 20.1537684367 31.1760031515 31.5591744571
443 25 2 19.3899521853 30.8732928105 32.190364757
444 25 2 18.7194430519 30.2943945145 32.7277140626
445 25 2 18.2127366247 29.4896072022 33.1388296058
446 25 2 17.9253983131 28.5298189925 33.4028244889
447 25 2 17.892998709 27.5000459216 33.512221469
448 25 2 18.1278714225 26.4916829589 33.4736344889
449 25 2 18.6179889063 25.5941735995 33.3071658339
450 25 2 19.3280587346 24.8868573291 33.0445738619
451 26 1 30.7136231037 15.9953543679 29.0745401515
452 26 1 32.3336705986 13.1640342935 33.5329102362
453 26 2 31.0123509051 16.4493545494 28.9648719069
454 26 2 31.5306528375 17.3462043147 28.9866346398
455 26 2 31.9705712195 18.2288875009 29.3041125465
456 26 2 32.3097650937 19.0110965686 29.8927945499
457 26 2 32.5350742724 19.6156819263 30.7034500443
458 26 2 32.6437188535 19.9816839083 31.6666161334
459 26 2 32.643552601 20.0698890864 32.6989289882
460 26 2 32.5523470959 19.8664044682 33.7107222365
461 26 2 32.3961719034 19.3839238071 34.6141998134
462 26 2 32.2070184022 18.6605705996 35.3314383381
463 26 2 32.0198838558 17.7564232313 35.8014896217
464 26 2 31.8695815052 16.7480389923 35.9859359313
465 26 2 31.7875674352 15.7214760849 35.8723916644
466 26 2 31.7990734364 14.7644496482 35.4756322628
467 26 2 31.9208071949 13.9583367583 34.8362474712
468 26 2 32.1594294314 13.3707591243 34.0169416897
469 27 1 14.4987206493 14.9186780357 39.7261652183
470 27 1 15.7851328233 18.5582496343 43.6779563765
471 27 2 14.7212773083 14.4150472386 39.7910199934
472 27 2 15.3368147228 13.595115138 39.940268286
473 27 2 16.1606012172 12.9960704843 40.129929367
474 27 2 17.1163661626 12.6701498112 40.3617463106
475 27 2 18.1158094466 12.6446951313 40.6336197965
476 27 2 19.0666497935 12.9196617852 40.939799458
477 27 2 19.8810359552 13.4676225118 41.2714080118
478 27 2 20.4835541177 14.2362673699 41.6172503994
479 27 2 20.8181016692 15.1531716497 41.9648341861
480 27 2 20.8530008026 16.1323971911 42.3015082135
481 27 2 20.5838858632 17.0823254178 42.6156157185
482 27 2 20.0341012668 17.9140081254 42.8975568163
483 27 2 19.2525737179 18.5492748724 43.1406635041
484 27 2 18.3093526719 18.9278580073 43.3418074316
485 27 2 17.2892255143 19.0128859036 43.5016850423
486 27 2 16.2839894171 18.7942437105 43.6247540939
487 28 1 23.5828398126 41.5561556351 2.76826036196
488 28 1 21.7667122377 40.5617747248 7.88986931797
489 28 2 24.1344938945 41.5657950737 2.71379529808
490 28 2 25.1540050387 41.7316711582 2.79461709405
491 28 2 26.0814221123 42.0638759842 3.11553380649
492 28 2 26.8375489945 42.5179788156 3.65914466694
493 28 2 27.3588022076 43.0384382393 4.38775093055
494 28 2 27.603006381 43.5636646157 5.24679201593
495 28 2 27.5532384235 44.0316338106 6.1698185563
496 28 2 27.2193700182 44.3855405287 7.08454908166
497 28 2 26.6371678445 44.5789759645 7.91945828165
498 28 2 25.8650335409 44.5801578411 8.61029634632
499 28 2 24.9786805522 44.3748272797 9.10594516467
500 28 2 24.0642330509 43.9675484581 9.3730776038
501 28 2 23.2103759492 43.3812925986 9.39919518801
502 28 2 22.5002715064 42.6553442017 9.19376730143
503 28 2 22.0039793112 41.8417203696 8.78736807901
504 28 2 21.7720705373 41.000429586 8.22888965579
505 29 1 29.8604138939 13.1627149945 -0.385711474873
506 29 1 24.4539752372 12.9311453476 0.725498501075
507 29 2 30.1904954301 12.9815496283 0.0212367744815
508 29 2 30.6787629038 12.7885747107 0.914436397436
509 29 2 30.9528182927 12.7871083107 1.91360680566
510 29 2 30.9776784798 12.9623453694 2.93445153211
511 29 2 30.7410738247 13.2833747799 3.89069855356
512 29 2 30.2545665087 13.7059968518 4.70196375495
513 29 2 29.5524966726 14.1767519955 5.30107772659
514 29 2 28.6888524046 14.6377934204 5.64020807639
515 29 2 27.7323488708 15.0321597154 5.69521922449
516 29 2 26.7601651111 15.3089667293 5.46787229688
517 29 2 25.8509093759 15.4280455251 4.98566460348
518 29 2 25.0774541945 15.3636036715 4.29932333184
519 29 2 24.5002942389 15.1065761537 3.47818189955
520 29 2 24.1620323954 14.6654516256 2.60386039856
521 29 2 24.0834966264 14.0654986913 1.76282614194
522 29 2 24.2618415566 13.3464627398 1.03851239941
523 30 1 40.8066198502 45.7577411599 14.4379917307
524 30 1 38.6237084804 43.4043403454 18.9340337255
525 30 2 40.8943954222 46.3036061419 14.4793252336
526 30 2 40.8348534476 47.3269860118 14.6296528967
527 30 2 40.4954186771 48.2738642585 14.8779584216
528 30 2 39.9129567836 49.0595637998 15.2198127539
529 30 2 39.1464847125 49.6140985618 15.6422601154
530 30 2 38.2717914454 49.8885525222 16.1249988887
531 30 2 37.3745300365 49.8595382756 16.6422320553
532 30 2 36.5424105657 49.531328732 17.1650185252
533 30 2 35.8572055997 48.9354676534 17.6639110394
534 30 2 35.3872968403 48.1278945238 18.1116402091
535 30 2 35.1814423158 47.1838458148 18.4856000477
536 30 2 35.2643322167 46.1909973821 18.769908446
537 30 2 35.6343384508 45.2414730462 18.9568547838
538 30 2 36.2636630397 44.4234477514 19.0476027327
539 30 2 37.1008718298 43.8131106564 19.0520841901
540 30 2 38.0755825783 43.4677206953 18.9880940137
541 31 1 31.1604200012 12.2844893985 41.2327399391
542 31 1 29.6332013211 11.3307860208 46.4553871636
543 31 2 31.0716333429 12.8017985148 41.0541627973
544 31 2 30.6894025979 13.732109429 40.8054234326
545 31 2 30.0612581604 14.5492710301 40.6999175339
546 31 2 29.2488025619 15.1891163677 40.7628766928
547 31 2 28.3304378037 15.6036403952 41.0041773614
548 31 2 27.3942192238 15.7653755012 41.4174406398
549 31 2 26.5298294883 15.6698951086 41.9806136958
550 31 2 25.8204042562 15.3362171459 42.6579798216
551 31 2 25.3349545862 14.8050706131 43.4034139165
552 31 2 25.1220767631 14.1351832428 44.1645866661
553 31 2 25.2055228764 13.3979286241 44.8877342198
554 31 2 25.5820358808 12.6708206906 45.5225586221
555 31 2 26.2216464672 12.0304485327 46.0268123364
556 31 2 27.0704046851 11.5454955068 46.3701489955
557 31 2 28.0552973362 11.2704789308 46.5368893918
558 31 2 29.0909029329 11.2407809762 46.5274505948
559 32 1 17.2686082199 20.1201107053 45.6928777182
560 32 1 20.8954404188 21.3940367396 49.6603947909
561 32 2 17.0590643618 19.6077408581 45.7237013982
562 32 2 16.8935939284 18.5877087729 45.7985618815
563 32 2 17.032663013 17.5666235204 45.9057752582
564 32 2 17.4615724186 16.6353045668 46.0545426589
565 32 2 18.1392047776 15.8763894197 46.2502776758
566 32 2 19.0017722896 15.3568014408 46.4941129285
567 32 2 19.9686308098 15.1216499599 46.7827968286
568 32 2 20.9496303464 15.1901186804 47.1089899535
569 32 2 21.8533319918 15.5537171358 47.4619340149
570 32 2 22.5953423348 16.177054573 47.828432448
571 32 2 23.106005694 17.0010657249 48.1940532437
572 32 2 23.3367530472 17.948394452 48.5444443866
573 32 2 23.2645289684 18.9304445469 48.866642004
574 32 2 22.8938930674 19.8554550427 49.1502519874
575 32 2 22.2566043942 20.6368639795 49.3883973879
576 32 2 21.4087266863 21.2011982954 49.5783452322
577 33 1 25.5740698109 11.79944939 43.1850204248
578 33 1 21.4648735468 8.29899019639 44.3594490338
579 33 2 26.0589432127 11.6796445499 43.4256989917
580 33 2 26.8345229817 11.4434363372 44.0707817099
581 33 2 27.3789167699 11.1940424318 44.9162922625
582 33 2 27.6427232939 10.9350091241 45.8841547913
583 33 2 27.6021160496 10.6707613104 46.8851413825
584 33 2 27.2610150339 10.406199175 47.8270049527
585 33 2 26.6507294483 10.1462515518 48.6228873236
586 33 2 25.8271039481 9.89542667458 49.1992361134
587 33 2 24.8654285515 9.6574012628 49.502508839
588 33 2 23.853576156 9.43468539909 49.504053171
589 33 2 22.8839931583 9.22839374161 49.2027185166
590 33 2 22.0452732127 9.03814392606 48.624960893
591 33 2 21.4140821557 8.8620914171 47.8224315322
592 33 2 21.0481701206 8.69709763284 46.8672690095
593 33 2 20.9811077668 8.5390160182 45.8455240046