LAMMPS input file for bananas

4320 atoms

2 atom types

0 126.992084157 xlo xhi
0 126.992084157 ylo yhi
0 126.992084157 zlo zhi

Masses

 1 1
 2 1

Atoms

1 1 1 74.9824945674 27.7826255197 90.3290515514
2 1 1 77.6199882951 23.9483642572 87.3524665166
3 1 2 75.2507499837 27.9502115469 90.7843926797
4 1 2 75.7702736242 28.0325923349 91.677006036
5 1 2 76.2870693292 27.8095775404 92.5468546504
6 1 2 76.7722514151 27.3017858503 93.3085606003
7 1 2 77.1998156951 26.5557926048 93.8866028783
8 1 2 77.5490096914 25.6398845788 94.2222009298
9 1 2 77.8062241679 24.6378358256 94.2786723433
10 1 2 77.9662335762 23.6412718955 94.0447763544
11 1 2 78.0326723498 22.7413184118 93.5357384112
12 1 2 78.0177036356 22.0202952136 92.7918624158
13 1 2 77.9409106555 21.5442131232 91.8748571309
14 1 2 77.8275117479 21.3567572352 90.8622115912
15 1 2 77.7060617835 21.4753051373 89.8401321852
16 1 2 77.6058494655 21.88934299 88.8956851729
17 1 2 77.5542277425 22.561423834 88.1088608291
18 1 2 77.5741206599 23.4305807814 87.5452825437
19 2 1 44.5774532155 28.4226076269 7.67327720772
20 2 1 44.9398112868 23.5960683431 5.01034532136
21 2 2 44.3800474997 28.3898733789 8.19032753449
22 2 2 43.8393885522 28.2045307461 9.05449535507
23 2 2 43.1263662278 27.8594311791 9.72229432558
24 2 2 42.3140049967 27.3697213089 10.1390718253
25 2 2 41.4843838046 26.7637286091 10.2730551698
26 2 2 40.7211547967 26.0803794225 10.1182476059
27 2 2 40.1019186481 25.3656509287 9.69497489979
28 2 2 39.6911514697 24.6683804475 9.04803269809
29 2 2 39.5343279826 24.0358140475 8.24260352391
30 2 2 39.6537766196 23.509300193 7.35831556438
31 2 2 40.0466443476 23.1205209426 6.48198477413
32 2 2 40.685156714 22.8886042135 5.69970183308
33 2 2 41.5191494142 22.8183803236 5.08898521106
34 2 2 42.4806406336 22.8999417205 4.71171556649
35 2 2 43.4900274083 23.1095460289 4.60849548972
36 2 2 44.4633412225 23.4117801038 4.79494868549
37 3 1 56.0398661343 58.899151051 17.4715268657
38 3 1 54.0080510029 60.2902837184 22.4166727922
39 3 2 56.0833045486 59.3178018585 17.1106582005
40 3 2 55.9406527096 60.1400628122 16.4966652135
41 3 2 55.5241720625 60.9601835468 16.0198047911
42 3 2 54.8774225128 61.7178250383 15.7349462272
43 3 2 54.0649523611 62.358343079 15.6794583596
44 3 2 53.166414898 62.8377689503 15.8698035
45 3 2 52.2693082194 63.1268170546 16.3000369388
46 3 2 51.4610000091 63.2135542188 16.9423487888
47 3 2 50.8207642078 63.1044873713 17.7495987827
48 3 2 50.4125554053 62.8239704527 18.6596129822
49 3 2 50.2791795507 62.4119846196 19.6008507661
50 3 2 50.4383923044 61.9204940684 20.4989255672
51 3 2 50.8812806571 61.4087096385 21.2833850087
52 3 2 51.5730753271 60.9376919016 21.8941324502
53 3 2 52.456319887 60.5647856548 22.2869046358
54 3 2 53.4561077635 60.3383930948 22.4373061716
55 4 1 77.7232306557 72.5160474693 65.0500864528
56 4 1 73.9644261381 70.7438757127 61.4101981406
57 4 2 77.7448907462 73.0663067101 65.1143297129
58 4 2 77.7976393172 74.0946422533 64.9994662727
59 4 2 77.8463828049 75.0445159285 64.5885963604
60 4 2 77.868096599 75.8341274229 63.9181545582
61 4 2 77.8422197737 76.3962838934 63.0482347321
62 4 2 77.7525291607 76.6845244141 62.057112637
63 4 2 77.5886180481 76.6773547663 61.0341112907
64 4 2 77.3468447242 76.380206578 60.0714594195
65 4 2 77.0306644095 75.8249422466 59.2558850562
66 4 2 76.6503143232 75.0669507658 58.660710512
67 4 2 76.2218805873 74.1800991672 58.3391692438
68 4 2 75.7658320201 73.2499997378 58.3195537664
69 4 2 75.3051544581 72.3662066886 58.602636866
70 4 2 74.8632556582 71.614053528 59.1616011625
71 4 2 74.4618317431 71.0668751403 59.9444834421
72 4 2 74.1188896584 70.7793235071 60.8789109652
73 5 1 85.4554824991 43.5294590009 121.195558565
74 5 1 82.9601814884 38.6937877294 120.24280084
75 5 2 85.7498161114 43.5519641945 121.664858926
76 5 2 86.1025088497 43.5096120397 122.638133881
77 5 2 86.1777402856 43.3464775018 123.658514871
78 5 2 85.9764022027 43.0598585456 124.633585413
79 5 2 85.5245949572 42.6583084106 125.47505895
80 5 2 84.8712485001 42.1608560061 126.106825935
81 5 2 84.0836625428 41.5952714769 126.471891013
82 5 2 83.2413723683 40.9955350289 126.537567995
83 5 2 82.4288994028 40.398739724 126.298459117
84 5 2 81.7280473137 39.841710547 125.776947031
85 5 2 81.2104458237 39.3576479062 125.021154686
86 5 2 80.9310218533 38.9731015052 124.100559052
87 5 2 80.9229930786 38.7055504084 123.099658477
88 5 2 81.1948402291 38.5618098709 122.110270891
89 5 2 81.7295340916 38.5374101462 121.223164844
90 5 2 82.4860876778 38.6170038917 120.519786199
91 6 1 98.0591003456 82.0043947736 52.3138417464
92 6 1 93.6604066355 79.4695957346 50.1357052634
93 6 2 97.9708139551 82.2436677798 52.8061176139
94 6 2 97.6211016287 82.7865633062 53.6163124963
95 6 2 97.0502770153 83.399237942 54.2264264714
96 6 2 96.2986986533 84.0131510828 54.589318511
97 6 2 95.4232003019 84.559649238 54.6803812054
98 6 2 94.4919106964 84.9762236126 54.499783663
99 6 2 93.5780437957 85.2122076171 54.0724560971
100 6 2 92.7532255257 85.2333949915 53.4458175029
101 6 2 92.0809652676 85.0251576143 52.6854535431
102 6 2 91.6108671477 84.5937788174 51.8691385902
103 6 2 91.3741087535 83.9658806761 51.0797468001
104 6 2 91.3805993803 83.1859974793 50.3976983545
105 6 2 91.6180768254 82.312516547 49.8936293759
106 6 2 92.0532250549 81.4123563829 49.6219536343
107 6 2 92.634710871 80.5548672313 49.6159028772
108 6 2 93.2978627963 79.8055099877 49.8844978446
109 7 1 33.1431967051 59.2062257519 47.2369608145
110 7 1 30.5559876279 56.2596239008 51.1282173961
111 7 2 33.0930853091 59.7559825341 47.2883214654
112 7 2 32.7701708943 60.7338355078 47.4022506265
113 7 2 32.1769365724 61.5709465282 47.5463623545
114 7 2 31.3684162449 62.193254161 47.7265791716
115 7 2 30.4192665571 62.5462757269 47.9455327178
116 7 2 29.4169621449 62.6000732517 48.2023238835
117 7 2 28.4538225551 62.3519822327 48.4926047614
118 7 2 27.6185975657 61.8268545013 48.8089749463
119 7 2 26.9883778806 61.0747930446 49.1416560625
120 7 2 26.6215685184 60.1665852523 49.4793830365
121 7 2 26.5525653506 59.1872508352 49.8104308783
122 7 2 26.78862001 58.228292506 50.123683383
123 7 2 27.3091789241 57.3793557512 50.4096463431
124 7 2 28.0677567177 56.720057885 50.66131292
125 7 2 28.9961732309 56.3127311438 50.8748022991
126 7 2 30.0107679587 56.1967412694 51.049713415
127 8 1 114.556835315 75.6203034192 67.4307759407
128 8 1 115.347249988 81.0876785283 67.3984475788
129 8 2 114.147979268 75.4414465085 67.101794899
130 8 2 113.259125424 75.2738450325 66.5965240794
131 8 2 112.281547447 75.3453243052 66.2608426484
132 8 2 111.306284152 75.6609012266 66.1101020649
133 8 2 110.424163378 76.2033438486 66.1427969241
134 8 2 109.717523273 76.9347420207 66.3407021707
135 8 2 109.252707389 77.799962799 66.6705342643
136 8 2 109.074017648 78.731675667 67.0869848849
137 8 2 109.199676339 79.6564895316 67.5368506653
138 8 2 109.620165204 80.5016421257 67.9638825358
139 8 2 110.299093003 81.2016320939 68.3139126765
140 8 2 111.176512478 81.7041892663 68.5397917696
141 8 2 112.174384385 81.9750389445 68.6056865331
142 8 2 113.203690563 82.001025949 68.4903458293
143 8 2 114.172547702 81.7913136786 68.1890376489
144 8 2 114.994582259 81.3765488909 67.713980421
145 9 1 4.21968343315 22.9009406952 1.73914031897
146 9 1 5.25815695618 19.2043374957 5.71087653734
147 9 2 4.4037345205 23.4134729812 1.84314724735
148 9 2 4.6358436715 24.3409976495 2.24223789232
149 9 2 4.71855979439 25.1518473251 2.8818712699
150 9 2 4.66110795707 25.7685504589 3.71242924041
151 9 2 4.48548916239 26.1313314399 4.66689139781
152 9 2 4.22447501552 26.203558983 5.66694380061
153 9 2 3.91862067974 25.9750849721 6.63011707827
154 9 2 3.61256838172 25.4631694342 7.47730329398
155 9 2 3.35097839182 24.7109073338 8.13996642158
156 9 2 3.1744583599 23.7833005823 8.56638922124
157 9 2 3.11586203649 22.7613332873 8.72638712758
158 9 2 3.19729474128 21.7345902678 8.61405949216
159 9 2 3.42809852231 20.7930916373 8.24832741183
160 9 2 3.80400065324 20.0190877111 7.67120912128
161 9 2 4.30750308098 19.4795621097 6.94399014328
162 9 2 4.90947732639 19.2201263814 6.14163727709
163 10 1 10.2064662458 36.2630965195 71.9492934278
164 10 1 9.49543568057 31.0031568192 70.4178036478
165 10 2 10.1382272313 36.3599520674 72.490905861
166 10 2 9.80929265115 36.4236351138 73.4713121659
167 10 2 9.25243494575 36.3169645701 74.33848049
168 10 2 8.52627647038 36.0339603172 75.0211608491
169 10 2 7.70487089301 35.584714582 75.464918844
170 10 2 6.87095340041 34.9944720583 75.6370972104
171 10 2 6.10839960695 34.3013289202 75.5297924414
172 10 2 5.49458051659 33.552760458 75.1605751708
173 10 2 5.0933103626 32.8012938321 74.5708886569
174 10 2 4.94903011084 32.0997203625 73.8222713401
175 10 2 5.08275678442 31.4962837417 72.990747779
176 10 2 5.49016781825 31.0302827506 72.1598992146
177 10 2 6.14199504933 30.7284892797 71.4132453638
178 10 2 6.98669243152 30.6027081431 70.8266318203
179 10 2 7.95513431991 30.6487011009 70.4613169318
180 10 2 8.96691608859 30.8465731637 70.3583882646
181 11 1 99.8469506643 52.7927048598 44.0379592592
182 11 1 103.596765713 50.8921692895 47.6219295029
183 11 2 99.3860276327 52.9970730143 44.2685350699
184 11 2 98.5249949467 53.1750249623 44.8166279717
185 11 2 97.739401661 53.0819216705 45.4856757859
186 11 2 97.1078675733 52.7351300481 46.2302228145
187 11 2 96.6949703971 52.1751400175 46.997931808
188 11 2 96.5453596759 51.4618739661 47.7343543656
189 11 2 96.6796870965 50.6692249812 48.3878937614
190 11 2 97.0927241428 49.878321692 48.9145078485
191 11 2 97.7538386615 49.1701336125 49.2817233824
192 11 2 98.6097869007 48.6180909861 49.4715958706
193 11 2 99.5895665354 48.2813918158 49.4823451656
194 11 2 100.61088834 48.199606124 49.3285177198
195 11 2 101.587676631 48.3890692507 49.0396607159
196 11 2 102.437914837 48.8413929314 48.6576289198
197 11 2 103.091121086 49.5242298644 48.2327697307
198 11 2 103.494772444 50.3842220813 47.8193341503
199 12 1 63.4725436555 86.1315892072 78.612320923
200 12 1 60.8667392882 81.2610606062 78.6879899906
201 12 2 63.1431361918 86.5716464892 78.5400582114
202 12 2 62.4454141973 87.2690525348 78.2234214527
203 12 2 61.6842561816 87.7444184881 77.7056225566
204 12 2 60.9136083372 87.9494719325 77.0441809521
205 12 2 60.1882818291 87.8605787141 76.3097087175
206 12 2 59.5589569034 87.480897132 75.5794744775
207 12 2 59.0675635188 86.840090067 74.9303605751
208 12 2 58.7434595426 85.9916212901 74.4318554514
209 12 2 58.6007548596 85.0078823821 74.1397199597
210 12 2 58.637025294 83.9735944347 74.0909049131
211 12 2 58.8335335662 82.9780859497 74.3001831163
212 12 2 59.1569371461 82.1071507842 74.7588028642
213 12 2 59.5623273355 81.4352282703 75.4352856362
214 12 2 59.9973225757 81.018618269 76.2782952797
215 12 2 60.4068428871 80.890349588 77.2213171624
216 12 2 60.7381302613 81.0571694942 78.1887208039
217 13 1 49.3833621946 39.5132375043 61.3977826809
218 13 1 52.6812849094 41.4648143037 57.4187068052
219 13 2 48.8800505858 39.7448177853 61.4185091364
220 13 2 48.0613251227 40.3787783849 61.4536173324
221 13 2 47.4627500441 41.224365236 61.4654817158
222 13 2 47.134822506 42.2066816346 61.4343684697
223 13 2 47.1033708645 43.2383683436 61.344461073
224 13 2 47.3672004903 44.2275661541 61.1853019345
225 13 2 47.8982026554 45.086288607 60.9527455741
226 13 2 48.6439165693 45.7384417229 60.6493364723
227 13 2 49.5323110394 46.1267597658 60.2840771476
228 13 2 50.4783499216 46.2180248611 59.8716076009
229 13 2 51.3917429378 46.0060947165 59.4308709189
230 13 2 52.1851753934 45.5124624756 58.9833866618
231 13 2 52.7822666782 44.7842976749 58.5512894137
232 13 2 53.1245321549 43.8901468672 58.1553112734
233 13 2 53.1767138777 42.9136857858 57.81289218
234 13 2 52.9299942593 41.9460925257 57.5365903085
235 14 1 9.52056935409 10.5858326868 14.6877686342
236 14 1 11.2526724784 11.1772253866 9.47546928529
237 14 2 8.98952592018 10.7197296923 14.7740591392
238 14 2 8.05646318936 11.1675251253 14.8222587421
239 14 2 7.26812916078 11.8297982587 14.7066137364
240 14 2 6.68804335697 12.6395839161 14.4216617044
241 14 2 6.36074403134 13.5164715487 13.9773721115
242 14 2 6.30772862547 14.3739344422 13.3982376157
243 14 2 6.52549433477 15.1272163951 12.7210416275
244 14 2 6.9858573797 15.7010570205 11.9915056005
245 14 2 7.638521882 16.0365515286 11.2601216428
246 14 2 8.41566419956 16.0965197412 10.5775502964
247 14 2 9.23811487008 15.8688949658 9.99000296436
248 14 2 10.022574696 15.3678238417 9.53502986484
249 14 2 10.6892072437 14.6323769123 9.23809742892
250 14 2 11.1689157211 13.7229874491 9.11026710368
251 14 2 11.4096409655 12.7159431206 9.14718713075
252 14 2 11.381106497 11.6964325754 9.32948919749
253 15 1 39.1256650956 121.222790815 103.196504272
254 15 1 36.1101713528 118.263799608 106.755880563
255 15 2 39.116909936 121.770525752 103.281893814
256 15 2 38.8674361994 122.762771228 103.445178171
257 15 2 38.3360668891 123.635581238 103.616348712
258 15 2 37.5713662775 124.310358409 103.798992506
259 15 2 36.6431661615 124.726555532 103.995650865
260 15 2 35.6362008809 124.84719428 104.207587713
261 15 2 34.6423840095 124.662235679 104.434674378
262 15 2 33.752430679 124.189495138 104.675401323
263 15 2 33.0475891368 123.473018623 104.927015738
264 15 2 32.5922351857 122.579067977 105.185772446
265 15 2 32.4280045011 121.590081342 105.447275273
266 15 2 32.5699976511 120.597159132 105.70687774
267 15 2 33.0054037196 119.691760479 105.960106583
268 15 2 33.6946679872 118.957366979 106.203069475
269 15 2 34.575097238 118.461873562 106.432809805
270 15 2 35.5665740792 118.251400056 106.647576162
271 16 1 77.3408123397 116.423894999 99.0326465628
272 16 1 79.4405317944 111.340870875 99.5542163349
273 16 2 77.488192164 116.779576645 99.4315843301
274 16 2 77.6939321243 117.271022187 100.320180053
275 16 2 77.8083337556 117.494420034 101.325394299
276 16 2 77.8392915828 117.424486343 102.358642044
277 16 2 77.8023058104 117.062673655 103.328783087
278 16 2 77.7190695205 116.437038504 104.150429233
279 16 2 77.6154914062 115.599684135 104.7517272
280 16 2 77.5193342636 114.622011433 105.080907855
281 16 2 77.4576844869 113.588210926 105.111004829
282 16 2 77.4544832164 112.58758904 104.842312433
283 16 2 77.528344167 111.706428059 104.302358827
284 16 2 77.6908570382 111.020121724 103.54339691
285 16 2 77.9455311441 110.586303296 102.637641599
286 16 2 78.2874755482 110.43959244 101.670687639
287 16 2 78.7038448599 110.58843973 100.733707868
288 16 2 79.175010057 111.014356408 99.9151430557
289 17 1 27.0142229468 63.9734053176 88.2283982395
290 17 1 30.9138997277 66.8719055122 90.8569356062
291 17 2 26.536433993 64.2431674878 88.1488515537
292 17 2 25.6620201815 64.792920341 88.2302290561
293 17 2 24.8869012459 65.3726490162 88.5997629652
294 17 2 24.2878911493 65.9472716519 89.2197998527
295 17 2 23.9257520049 66.4821717887 90.0298536132
296 17 2 23.8396557716 66.9463535663 90.9521186115
297 17 2 24.0436138348 67.3152669144 91.8985614578
298 17 2 24.5251999062 67.573045225 92.778945016
299 17 2 25.2466826464 67.7139515519 93.5090532778
300 17 2 26.1484647757 67.7429015178 94.0183674263
301 17 2 27.1545152073 67.6750152686 94.2564934379
302 17 2 28.1792990771 67.5342393122 94.1977553631
303 17 2 29.1355740183 67.3511638586 93.8435356201
304 17 2 29.9423420698 67.1602346038 93.2221489916
305 17 2 30.5322324237 66.996613097 92.3862618079
306 17 2 30.857642095 66.8929718589 91.4080915513
307 18 1 51.8862446445 31.5239589841 97.3172324674
308 18 1 48.1879867516 27.523609539 96.4017632238
309 18 2 51.9745488687 31.6426180328 97.8515581941
310 18 2 51.9048283665 31.8772918524 98.8582941383
311 18 2 51.5359549749 32.0951771569 99.8016437162
312 18 2 50.9008260823 32.2589780363 100.603660283
313 18 2 50.0566075545 32.3363282313 101.199279319
314 18 2 49.0795232189 32.3027412312 101.542248888
315 18 2 48.0579072658 32.1438421544 101.609345379
316 18 2 47.0841528239 31.85667798 101.402490273
317 18 2 46.2462905725 31.449986708 100.948575008
318 18 2 45.6199649814 30.9434009138 100.297009893
319 18 2 45.261539519 30.3656582916 99.5152204962
320 18 2 45.2029592731 29.7519822902 98.6825019776
321 18 2 45.4488392413 29.14087159 97.8827915522
322 18 2 45.9760436865 28.5705910508 97.1970178354
323 18 2 46.7357948975 28.0756839726 96.6957244157
324 18 2 47.6581191468 27.6838235659 96.4326399961
325 19 1 23.7271440226 31.9694969306 76.5420459938
326 19 1 23.9315315028 37.3129983532 77.9288442364
327 19 2 23.3879199233 31.8505241802 76.119962965
328 19 2 22.5985655565 31.753132526 75.4559715791
329 19 2 21.6735108685 31.8381505904 74.9971734055
330 19 2 20.6998251872 32.1129081627 74.7738026786
331 19 2 19.7690104256 32.567440783 74.7946350501
332 19 2 18.9686609268 33.1753979765 75.0461877122
333 19 2 18.3744794741 33.8964450286 75.4939483192
334 19 2 18.0433771844 34.6799393863 76.0855206955
335 19 2 18.008286212 35.4695465914 76.7554006074
336 19 2 18.2751580707 36.2083750164 77.4309462984
337 19 2 18.8224211695 36.8441613836 78.0389995915
338 19 2 19.6029470052 37.3340344236 78.5125540611
339 19 2 20.5483457996 37.6484224766 78.7968624903
340 19 2 21.5752000449 37.7737488705 78.8544269327
341 19 2 22.5926677868 37.7136693981 78.6684165503
342 19 2 23.5107626256 37.4887391014 78.2442016994
343 20 1 79.7338024361 90.303198228 91.2756005036
344 20 1 80.9491125096 92.7934768175 86.4965289375
345 20 2 80.005151769 90.5000469818 91.7171904668
346 20 2 80.7014535777 90.8382654526 92.4058283022
347 20 2 81.5873030391 91.1268251247 92.8590987056
348 20 2 82.5822879734 91.3582730654 93.0319768201
349 20 2 83.5960487941 91.5303619239 92.9049947965
350 20 2 84.536514543 91.6462547711 92.4860162357
351 20 2 85.3182949115 91.7142367939 91.8095194426
352 20 2 85.8704633397 91.7469601231 90.9334548207
353 20 2 86.143021782 91.7602906249 89.9339628475
354 20 2 86.1114578958 91.7718617701 88.8984340739
355 20 2 85.7789792761 91.7994673901 87.9175437089
356 20 2 85.1762210912 91.8594398165 87.0769868162
357 20 2 84.3584537696 91.9651612335 86.449667439
358 20 2 83.4005452481 92.1258439268 86.0890535907
359 20 2 82.3901369589 92.3456906085 86.0243037886
360 20 2 81.419655548 92.6235113517 86.257609333
361 21 1 38.2320679169 102.74391499 111.394499288
362 21 1 38.8114951696 97.2517102738 111.528448828
363 21 2 38.3612953684 103.004019075 111.866757394
364 21 2 38.4595793579 103.330042834 112.845276059
365 21 2 38.3772563237 103.414020141 113.874654872
366 21 2 38.1370445523 103.238199415 114.867043601
367 21 2 37.7760534669 102.808508975 115.737963559
368 21 2 37.3424012023 102.154016684 116.414007614
369 21 2 36.8908287654 101.324280491 116.839531052
370 21 2 36.4777105391 100.384831362 116.981723443
371 21 2 36.1559159078 99.4112003014 116.833599225
372 21 2 35.9699903542 98.4820339058 116.414634418
373 21 2 35.9520952576 97.6719259367 115.76899144
374 21 2 36.1190764706 97.0446182981 114.961493817
375 21 2 36.470928864 96.6471911326 114.071717692
376 21 2 36.9907967947 96.5057715918 113.186738675
377 21 2 37.6465104526 96.6231524168 112.393195134
378 21 2 38.3935180523 96.9785373869 111.769391335
379 22 1 55.3420712832 115.493443147 72.4347504953
380 22 1 55.282520788 118.554628719 67.8365347878
381 22 2 55.3095565937 114.946269416 72.351532163
382 22 2 55.0649505744 113.982193442 72.0614021523
383 22 2 54.6108715756 113.169386554 71.606861463
384 22 2 53.999486403 112.579738872 71.0135876706
385 22 2 53.2972998997 112.264800148 70.319903502
386 22 2 52.5790932072 112.251081148 69.5732838216
387 22 2 51.9211076648 112.537637265 68.8260284242
388 22 2 51.3940956145 113.096154618 68.1304950485
389 22 2 51.0568715149 113.873530785 67.5343271092
390 22 2 50.9509511599 114.796714951 67.0761111269
391 22 2 51.0967676254 115.779366288 66.7818596704
392 22 2 51.491808849 116.729723696 66.6626403798
393 22 2 52.1108465976 117.558969581 66.7135671813
394 22 2 52.9082359537 118.189325339 66.9142456395
395 22 2 53.8220757273 118.561140672 67.2306318558
396 22 2 54.7798505842 118.638330547 67.6181354787
397 23 1 67.5306710634 61.6989419814 67.8135666791
398 23 1 71.2699106581 62.2518329188 71.8422624887
399 23 2 67.368106318 62.1742263446 67.5789199964
400 23 2 67.0305724486 63.1297473188 67.3632800974
401 23 2 66.6902757745 64.104193348 67.4532974348
402 23 2 66.3946693738 65.018685346 67.8403003452
403 23 2 66.1871329258 65.7998088764 68.488547724
404 23 2 66.1030187689 66.3863056823 69.3384867315
405 23 2 66.1664296296 66.7346572122 70.3121808752
406 23 2 66.3880217232 66.8230512203 71.3204137127
407 23 2 66.7640334687 66.653369894 72.2708206918
408 23 2 67.2766283461 66.2510182977 73.076307933
409 23 2 67.8955206485 65.6626087689 73.6629906034
410 23 2 68.5807359424 64.9517123285 73.9769273219
411 23 2 69.2862546311 64.1930643521 73.989036772
412 23 2 69.9642065178 63.4657526398 73.6977483861
413 23 2 70.5692340457 62.8460087754 73.1291454982
414 23 2 71.0626265188 62.4002598206 72.3345879181
415 24 1 73.0734660744 36.8965990006 102.273886717
416 24 1 75.6469231744 40.827092876 99.3675956934
417 24 2 72.9321662121 36.4460105321 101.983394085
418 24 2 72.5749554208 35.7613979285 101.292629259
419 24 2 72.1384586645 35.3340258894 100.455805662
420 24 2 71.6775681209 35.2008591447 99.5374938759
421 24 2 71.249399396 35.3720463981 98.6096919151
422 24 2 70.9080855896 35.8299952997 97.745262797
423 24 2 70.6998432078 36.5309759421 97.011293274
424 24 2 70.6587596521 37.4091067238 96.462979055
425 24 2 70.8036862436 38.3823592822 96.1385938644
426 24 2 71.1365199758 39.3600351585 96.0560008939
427 24 2 71.6420306084 40.2510327206 96.2110246207
428 24 2 72.2892488634 40.9721508328 96.5778313953
429 24 2 73.0342891915 41.4556724175 97.1112841091
430 24 2 73.824349823 41.6555366853 97.7510563217
431 24 2 74.602525508 41.5515374532 98.4271308548
432 24 2 75.3129942775 41.1511648841 99.0661816702
433 25 1 17.1225326306 66.5280578638 82.3963569982
434 25 1 18.0240164971 71.548953907 84.5167156525
435 25 2 17.0084080981 66.1340350971 82.7693224637
436 25 2 16.9887157549 65.4793671813 83.5721126871
437 25 2 17.2122374558 64.9911419226 84.4581850076
438 25 2 17.6477205863 64.7234521286 85.3593767899
439 25 2 18.2445928141 64.710289389 86.2061473002
440 25 2 18.9375716223 64.9624458324 86.9339161582
441 25 2 19.6526146358 65.4665304535 87.4889496661
442 25 2 20.3136683862 66.1861896665 87.8332584916
443 25 2 20.8496003823 67.0654208379 87.9480602941
444 25 2 21.2006826463 68.0336767768 87.8354916845
445 25 2 21.3240357592 69.0122959226 87.5184134793
446 25 2 21.1975372059 69.921672136 87.0383269978
447 25 2 20.8218377824 70.688510586 86.4515913282
448 25 2 20.2203022784 71.2525083778 85.8242863471
449 25 2 19.4368798383 71.5718510004 85.2261897153
450 25 2 18.532098115 71.6270236076 84.7244168307
451 26 1 92.2372322322 67.8985044534 94.4480634757
452 26 1 89.7473037843 64.0926947839 97.5839939827
453 26 2 92.5627243817 68.2522361752 94.7243066977
454 26 2 92.9818552963 68.9379258779 95.3782248264
455 26 2 93.1290462471 69.5908106831 96.1691270116
456 26 2 92.9988862733 70.1398691246 97.0380592415
457 26 2 92.61124421 70.5235432323 97.9189552745
458 26 2 92.0094576961 70.6953493756 98.7446584004
459 26 2 91.2563830653 70.6281151229 99.4530425947
460 26 2 90.4286661584 70.3164559356 99.9926751402
461 26 2 89.6097562603 69.7772659548 100.327504581
462 26 2 88.8822999208 69.0481781451 100.440146718
463 26 2 88.3206079419 68.1841341508 100.33346913
464 26 2 87.9838821474 67.2523765116 100.030329802
465 26 2 87.9108192947 66.3263196849 99.5714936822
466 26 2 88.1160839687 65.4788585146 99.0119170658
467 26 2 88.588971944 64.7757240601 98.4157384743
468 26 2 89.2943858469 64.2694923869 97.8504326015
469 27 1 84.8047809376 120.936887549 93.2426088535
470 27 1 86.7555666197 118.258767353 97.6630272163
471 27 2 84.2559157544 120.902686779 93.1721893528
472 27 2 83.2681680043 120.608134561 93.067101844
473 27 2 82.4035323055 120.039237965 93.0200722522
474 27 2 81.734493541 119.248845924 93.0535022415
475 27 2 81.3157084557 118.30999609 93.1824598006
476 27 2 81.1790238407 117.309257645 93.4133058352
477 27 2 81.3305737834 116.338840753 93.7431143889
478 27 2 81.7502205613 115.48819185 94.1599393363
479 27 2 82.3933901422 114.835840839 94.6439032401
480 27 2 83.1951349876 114.442243301 95.1690091266
481 27 2 84.0760538477 114.344270129 95.7055100405
482 27 2 84.9495289728 114.551846845 96.2226204001
483 27 2 85.7296210897 115.047048916 96.6913220208
484 27 2 86.3389025367 115.785735526 97.0870090454
485 27 2 86.7155145885 116.701572895 97.3917307017
486 27 2 86.8188057128 117.712080423 97.5958274679
487 28 1 75.4845520985 124.06370638 101.377181872
488 28 1 77.6891063312 119.011068793 101.018315454
489 28 2 75.0619704727 124.109436594 101.733152524
490 28 2 74.1899265382 124.007058649 102.283159928
491 28 2 73.2860410378 123.659924635 102.651858979
492 28 2 72.4384533909 123.08828573 102.82000818
493 28 2 71.7301716181 122.33285613 102.786645617
494 28 2 71.2315063818 121.451102062 102.569176636
495 28 2 70.9936623575 120.512003893 102.201787387
496 28 2 71.0440710642 119.589768749 101.732328857
497 28 2 71.383890555 118.757066737 101.21795537
498 28 2 71.9878998635 118.078407258 100.719915132
499 28 2 72.8067978275 117.60425915 100.297967615
500 28 2 73.7716967584 117.366450583 100.004936644
501 28 2 74.8004013693 117.375268011 99.8818956447
502 28 2 75.8049006566 117.618518589 99.9544239115
503 28 2 76.6993898668 118.062641515 100.230275123
504 28 2 77.4080913713 118.65576701 100.698670614
505 29 1 46.5257221333 23.3458911499 105.421329647
506 29 1 45.2024452734 28.4345381974 107.116204462
507 29 2 46.812172446 23.0446166354 105.788155864
508 29 2 47.4841625343 22.6728043899 106.483594564
509 29 2 48.2723250465 22.5828716164 107.150049336
510 29 2 49.0965377422 22.7881324121 107.743338008
511 29 2 49.8733925033 23.2749947693 108.225947308
512 29 2 50.5237977609 24.0041994508 108.57045209
513 29 2 50.98018748 24.9143983639 108.762015066
514 29 2 51.192679624 25.9277462759 108.799739186
515 29 2 51.1336227677 26.9569961983 108.696749399
516 29 2 50.8001164521 27.9134517168 108.478996351
517 29 2 50.2142755524 28.7150514325 108.182891054
518 29 2 49.421214567 29.2938486392 107.851986115
519 29 2 48.4849355512 29.6022044836 107.533006039
520 29 2 47.4824945009 29.6171301201 107.271588409
521 29 2 46.4969779048 29.3423820819 107.108124146
522 29 2 45.6099296325 28.8081198837 107.074075983
523 30 1 67.3374897042 45.5627314757 46.1262595641
524 30 1 65.066291925 42.9346781298 50.4219536082
525 30 2 67.3497199092 46.1152594493 46.1703600004
526 30 2 67.1446057414 47.1219027002 46.3047011885
527 30 2 66.6639097052 48.0161667575 46.5112759397
528 30 2 65.9553844445 48.7188773895 46.7899150142
529 30 2 65.0875486279 49.1683199472 47.1338807015
530 30 2 64.1434416557 49.3258644897 47.5304809451
531 30 2 63.2130548398 49.1794868001 47.9622261895
532 30 2 62.3851289368 48.7448643605 48.4084235059
533 30 2 61.7390656647 48.0639473915 48.8470626982
534 30 2 61.3376904491 47.2011352019 49.256822473
535 30 2 61.2215260529 46.2374063637 49.6190138183
536 30 2 61.4050990354 45.2629377316 49.9192834578
537 30 2 61.8756156946 44.3688850639 50.1489221129
538 30 2 62.5941281798 43.6390744186 50.3056583304
539 30 2 63.4990844831 43.1423616324 50.3938655195
540 30 2 64.5119387413 42.9263562951 50.4241633274
541 31 1 36.3895064733 95.8758514345 19.2715472573
542 31 1 33.9949568834 91.1128697047 20.7200390123
543 31 2 36.0660600893 96.3236836282 19.3185616276
544 31 2 35.3090119114 97.0301662239 19.2837706891
545 31 2 34.4068157993 97.5077138397 19.1064561066
546 31 2 33.4319945802 97.7089207225 18.8188984739
547 31 2 32.4636906655 97.6115688387 18.463426744
548 31 2 31.5804524319 97.2206529882 18.0885600586
549 31 2 30.8530747467 96.5679255418 17.7445853577
550 31 2 30.3381462046 95.7090022975 17.4789738593
551 31 2 30.0728912288 94.7182932492 17.3320541851
552 31 2 30.0717771643 93.6822203147 17.3333365142
553 31 2 30.3251956179 92.6913402086 17.4988228092
554 31 2 30.8003382378 91.83209044 17.8295482802
555 31 2 31.4441871071 91.1789107648 18.3114870279
556 31 2 32.1883471851 90.7874582004 18.9168304671
557 31 2 32.9552803324 90.6895340376 19.6065220047
558 31 2 33.6653727055 90.890185238 20.333816944
559 32 1 22.0188929921 79.328174484 26.5972704934
560 32 1 24.6284020673 82.8171301111 23.2008544294
561 32 2 21.5501772746 79.52460267 26.8188627585
562 32 2 20.8092802276 80.0762426137 27.2881334154
563 32 2 20.2965247985 80.8310700428 27.7788139972
564 32 2 20.0512243461 81.7301688631 28.2314717161
565 32 2 20.0883144228 82.7014730287 28.5901394668
566 32 2 20.3969914392 83.6663351692 28.8074170781
567 32 2 20.9416973821 84.5466950881 28.8487917124
568 32 2 21.6653608324 85.2721947399 28.6957836179
569 32 2 22.4945988728 85.7865911791 28.3476305094
570 32 2 23.346405744 86.0528829534 27.8213570479
571 32 2 24.1357185983 86.0566826878 27.1502230887
572 32 2 24.7831707505 85.8075284552 26.380692134
573 32 2 25.2223257392 85.3380144063 25.5681963095
574 32 2 25.4057328329 84.7008199001 24.7720838736
575 32 2 25.309252037 83.9639079214 24.0502097829
576 32 2 24.93425439 83.2043304358 23.4536623671
577 33 1 111.959758784 113.715848549 4.21499091331
578 33 1 106.590261251 112.80910835 5.14467339473
579 33 2 112.246663674 113.891743476 4.65559067144
580 33 2 112.608600036 114.377586167 5.49607205768
581 33 2 112.709072752 115.019368229 6.30320961066
582 33 2 112.53099257 115.748324216 7.01760490006
583 33 2 112.082659594 116.487743011 7.588312705
584 33 2 111.397006743 117.159959841 7.97748453477
585 33 2 110.528598012 117.693435212 8.16381841758
586 33 2 109.548655104 118.029275543 8.14450051839
587 33 2 108.538565766 118.126601159 7.93546161241
588 33 2 107.582465509 117.966272363 7.56992503755
589 33 2 106.759568886 117.552633971 7.09537847596
590 33 2 106.136949293 116.91311929 6.56924557871
591 33 2 105.763425411 116.095749646 6.05365195349
592 33 2 105.665111512 115.164757372 5.60976258152
593 33 2 105.843037214 114.194731199 5.29220679299
594 33 2 106.273053635 113.263817693 5.1440989496