LAMMPS input file for bananas

4320 atoms

2 atom types

0 63.4960420787 xlo xhi
0 63.4960420787 ylo yhi
0 63.4960420787 zlo zhi

Masses

 1 1
 2 1

Atoms

1 1 1 35.4430018499 13.5446857972 27.9738907568
2 1 1 29.9917813983 14.4357253394 28.0646386702
3 1 2 35.7530554102 13.9776135224 28.1282344077
4 1 2 36.2004539993 14.9027248862 28.2603460199
5 1 2 36.4320532142 15.9102240379 28.1913730244
6 1 2 36.4162551718 16.9156893099 27.9418935265
7 1 2 36.1440115877 17.8348844173 27.5489383171
8 1 2 35.6296485032 18.5914363702 27.0626156144
9 1 2 34.909560505 19.1237966674 26.5415438344
10 1 2 34.0388934557 19.390851278 26.0475086783
11 1 2 33.0865180961 19.3756680754 25.6398315315
12 1 2 32.1287526611 19.0870401551 25.3699624776
13 1 2 31.2424066764 18.558684368 25.2767907608
14 1 2 30.4977799758 17.8461681192 25.3831001354
15 1 2 29.9522550591 17.0218445477 25.6934921874
16 1 2 29.6450668307 16.1682577311 26.1939669121
17 1 2 29.593726443 15.3706190136 26.8531987773
18 1 2 29.7924252011 14.7090402197 27.6253919618
19 2 1 60.9942571623 46.3437269822 36.8227634621
20 2 1 60.7578151971 40.9321373083 35.7379669559
21 2 2 60.8140527336 46.4890684939 37.3265330492
22 2 2 60.2899652035 46.6312254289 38.2089012705
23 2 2 59.5707465831 46.5820422346 38.9530488368
24 2 2 58.7284921603 46.3315250793 39.5019556172
25 2 2 57.846511608 45.8880311841 39.8163971561
26 2 2 57.0117355293 45.2775070839 39.8785198784
27 2 2 56.3067919658 44.5411236703 39.6934683945
28 2 2 55.8024750724 43.7315235752 39.288916583
29 2 2 55.5512924192 42.908022935 38.712545191
30 2 2 55.5826790668 42.1312048839 38.0276958609
31 2 2 55.9003146394 41.4573975627 37.3075977092
32 2 2 56.4817879368 40.9335399597 36.6286926883
33 2 2 57.2806396551 40.5929035468 36.063668107
34 2 2 58.2305970287 40.4520596746 35.6748313762
35 2 2 59.2516144151 40.5093691372 35.5084308552
36 2 2 60.2571692416 40.7451315821 35.5904404373
37 3 1 50.190099472 5.5883221129 50.6730651616
38 3 1 47.9441620526 1.54004738683 53.6872363432
39 3 2 50.0270474755 6.100030908 50.810723229
40 3 2 49.5069369108 6.96329946923 51.0509364735
41 3 2 48.7486204237 7.63574178943 51.265942154
42 3 2 47.8201936456 8.05481441898 51.4552880277
43 3 2 46.8052573058 8.18106787836 51.6208606746
44 3 2 45.7952972493 8.00174237278 51.7667135408
45 3 2 44.8813457461 7.53193081336 51.8986974777
46 3 2 44.1456841431 6.81320313862 52.0239274525
47 3 2 43.6543431393 5.90981732572 52.150134038
48 3 2 43.4510842642 4.90286244754 52.2849587916
49 3 2 43.5534111312 3.88286762045 52.4352577476
50 3 2 43.9509740301 2.94155051733 52.6064765083
51 3 2 44.6065132753 2.16345754678 52.8021538916
52 3 2 45.459255327 1.61825767399 53.0235993772
53 3 2 46.4304521366 1.35439228076 53.2697737513
54 3 2 47.4305588208 1.39465986301 53.5373838281
55 4 1 53.9119087508 41.2920665726 21.4707744659
56 4 1 50.9131668869 36.8538093414 22.8225921478
57 4 2 54.3315235184 41.1931226545 21.1221842537
58 4 2 55.1676040703 40.837609064 20.6241587435
59 4 2 55.9973307423 40.2785870757 20.3549040732
60 4 2 56.7373434148 39.5539760673 20.3271526361
61 4 2 57.3124591593 38.7167884131 20.5316244514
62 4 2 57.6625249616 37.8302975477 20.9378730093
63 4 2 57.7479005083 36.9622707617 21.4970603894
64 4 2 57.5530712953 36.1787923943 22.1464087062
65 4 2 57.0880627333 35.538240422 22.8149221461
66 4 2 56.3875263588 35.0859654628 23.4298580456
67 4 2 55.5075814386 34.8501571879 23.9233571906
68 4 2 54.5206998492 34.8392749089 24.2386290029
69 4 2 53.5091004585 35.041276534 24.3351278493
70 4 2 52.557255096 35.4247161726 24.1922486676
71 4 2 51.7441891711 35.941610344 23.811205063
72 4 2 51.1362787187 36.5318115437 23.2149186915
73 5 1 41.4715787262 60.0897811642 34.5357154228
74 5 1 37.9109520472 56.1415127553 36.0360838059
75 5 2 41.3620792349 60.593200432 34.7405580215
76 5 2 40.941753651 61.4917555001 35.039514882
77 5 2 40.2705492367 62.2599193069 35.2207854288
78 5 2 39.4035391599 62.8234326891 35.2855635587
79 5 2 38.4136437516 63.1266898222 35.2456611409
80 5 2 37.384984012 63.1378065434 35.1224313965
81 5 2 36.4052142068 62.8515265076 34.9448226101
82 5 2 35.5575324146 62.2897002892 34.7467395703
83 5 2 34.9130972447 61.4992937607 34.5639532393
84 5 2 34.5245419202 60.548107279 34.4308403252
85 5 2 34.4211769001 59.5185958638 34.3772499368
86 5 2 34.6063183091 58.5003536433 34.4257829175
87 5 2 35.0569856825 57.5819475887 34.5897318382
88 5 2 35.7259965734 56.8428448715 34.8718694156
89 5 2 36.5462671067 56.3461696432 35.2641957862
90 5 2 37.4369264954 56.1329494378 35.7486676723
91 6 1 31.1047499761 22.116439248 5.0644187362
92 6 1 33.2640437007 27.0727312224 3.92836788493
93 6 2 30.5740816382 22.1240329639 5.2247778292
94 6 2 29.6579875769 22.3028833558 5.67448242052
95 6 2 28.9072155972 22.6922845228 6.27294559955
96 6 2 28.3829029554 23.2704588049 6.95431243495
97 6 2 28.1255457448 23.998422377 7.64517154869
98 6 2 28.1513077844 24.8235385206 8.27124636692
99 6 2 28.4505473305 25.6843153201 8.76416523119
100 6 2 28.9886958954 26.5160104862 9.06769329235
101 6 2 29.7094090731 27.256532443 9.14285816676
102 6 2 30.5397021807 27.8520998087 8.9715021649
103 6 2 31.3966026181 28.2621434253 8.55793731621
104 6 2 32.1947125979 28.4630041285 7.92855233916
105 6 2 32.8539929257 28.4500892175 7.12940738009
106 6 2 33.307058359 28.2382910673 6.22203575397
107 6 2 33.5053195918 27.8606297288 5.2778353472
108 6 2 33.4234120397 27.365243239 4.3715608911
109 7 1 43.9469517742 16.3372605597 57.6146020466
110 7 1 41.337426264 13.6839474643 61.6972846563
111 7 2 43.9293611109 16.8904644461 57.6468141046
112 7 2 43.6655875089 17.8885679746 57.7343517787
113 7 2 43.1252978777 18.7627202542 57.8662415721
114 7 2 42.3594898746 19.4361060534 58.0493799873
115 7 2 41.4397165538 19.8502094686 58.2859923518
116 7 2 40.4515644966 19.9701474926 58.5734299858
117 7 2 39.4868528234 19.7878495074 58.9044116216
118 7 2 38.6352641262 19.3227928993 59.2676870726
119 7 2 37.9761701401 18.6202277476 59.6490626568
120 7 2 37.5713972219 17.7470524002 60.0326949139
121 7 2 37.4595910426 16.7857158687 60.4025346935
122 7 2 37.6526941382 15.8267028206 60.7437899928
123 7 2 38.1348573791 14.9602861445 61.0442742081
124 7 2 38.863884576 14.2682988169 61.2955169108
125 7 2 39.77507855 13.8166750454 61.4935359049
126 7 2 40.7871381072 13.6494405421 61.6392001928
127 8 1 10.2000036509 7.30796996847 15.9068689635
128 8 1 6.37148404079 5.47313992772 19.441529821
129 8 2 10.0940732698 7.80490156013 15.6850146518
130 8 2 9.68663466303 8.6377681671 15.2226543941
131 8 2 9.03397222107 9.28758242453 14.7480775522
132 8 2 8.18784939945 9.70446988158 14.3194389747
133 8 2 7.2176630503 9.85978674268 13.9907063603
134 8 2 6.2041180847 9.74873067301 13.8067412461
135 8 2 5.23187143569 9.39077851841 13.7992099984
136 8 2 4.38181580518 8.82791104296 13.9836975083
137 8 2 3.72370651031 8.12078649456 14.3582866702
138 8 2 3.30980347275 7.34321176774 14.9037331212
139 8 2 3.17010786653 6.5754151025 15.585219313
140 8 2 3.30962759121 5.89673349465 16.3555280386
141 8 2 3.7079208152 5.37838134071 17.1593461545
142 8 2 4.3209591941 5.076959436 17.9383062257
143 8 2 5.0851409366 5.02929596342 18.6363065616
144 8 2 5.92308793778 5.24908970304 19.2046247352
145 9 1 31.5253630546 17.3065836656 34.6269597172
146 9 1 27.7956775649 14.8908618087 37.9089903569
147 9 2 31.3572040976 17.7789521035 34.3903752457
148 9 2 30.8556616905 18.533108607 33.8872319328
149 9 2 30.1431132691 19.066916128 33.3573505415
150 9 2 29.2743136116 19.3397608448 32.8631917342
151 9 2 28.3182593788 19.3348149977 32.4639601552
152 9 2 27.3519002527 19.0605706945 32.2102080858
153 9 2 26.4531251789 18.5500658776 32.1392277386
154 9 2 25.6936629971 17.8578730034 32.2716521725
155 9 2 25.1325445496 17.0551249096 32.609574644
156 9 2 24.810722177 16.2230312462 33.136357813
157 9 2 24.7473370225 15.4454764339 33.8181501914
158 9 2 24.9379743676 14.8013738225 34.6069716159
159 9 2 25.355066022 14.3574729505 35.4450865119
160 9 2 25.9504030901 14.1622755032 36.2702663366
161 9 2 26.6595300834 14.241614513 37.0214615443
162 9 2 27.4076198659 14.5962997484 37.6443660894
163 10 1 33.7626620757 8.27218598001 50.3741693123
164 10 1 31.0024365967 4.928595021 53.7975515383
165 10 2 33.7094847238 8.81325109465 50.4828076988
166 10 2 33.3803237989 9.77404641517 50.6876868065
167 10 2 32.7799285203 10.5926469397 50.8947343901
168 10 2 31.9631009124 11.1945843881 51.1042910132
169 10 2 31.0043702279 11.5251387407 51.3164685471
170 10 2 29.991199806 11.5543258217 51.5311399741
171 10 2 29.0160150221 11.2796302764 51.7479509649
172 10 2 28.1677789623 10.7262348394 51.9663521747
173 10 2 27.523883676 9.94472499558 52.1856493143
174 10 2 27.143096097 9.00647824827 52.4050664331
175 10 2 27.0602015949 7.99715825061 52.6238166446
176 10 2 27.2828333817 7.00890679256 52.8411738492
177 10 2 27.7907767644 6.13194532301 53.056538916
178 10 2 28.537811661 5.44635150583 53.2694942923
179 10 2 29.4559254368 5.01476035489 53.4798420622
180 10 2 30.4615120746 4.87665521989 53.6876219861
181 11 1 1.40136064047 9.12566406036 28.5361670352
182 11 1 5.22378578734 8.65497567539 24.575673442
183 11 2 1.22493004658 9.64277341065 28.6302507928
184 11 2 1.12526763434 10.6567732343 28.8181916673
185 11 2 1.33122236334 11.657228067 28.991750846
186 11 2 1.82350579011 12.5601895763 29.1173197581
187 11 2 2.55673137569 13.2905956856 29.1656640173
188 11 2 3.4635513473 13.7891122817 29.1145880581
189 11 2 4.46079526786 14.0175413611 28.950958202
190 11 2 5.45705079904 13.9623026751 28.6718997577
191 11 2 6.36099569154 13.6356715341 28.2850590409
192 11 2 7.08972156406 13.0746599449 27.8079064335
193 11 2 7.57629078065 12.3376430663 27.2661440047
194 11 2 7.77583763733 11.4990384682 26.6913628366
195 11 2 7.66965775106 10.6425231701 26.1181635806
196 11 2 7.2669129143 9.85340670367 25.5810027015
197 11 2 6.6037960221 9.21085537728 25.1110518621
198 11 2 5.74023218645 8.78067647854 24.7333567099
199 12 1 44.1020621602 48.3698544615 30.2724206528
200 12 1 40.4121879302 52.4471251935 30.8003246273
201 12 2 44.6322618344 48.5297776906 30.2987731544
202 12 2 45.5554730367 48.9866427048 30.1873934166
203 12 2 46.3164119535 49.6230071864 29.888291055
204 12 2 46.8450283668 50.3944430365 29.4423073917
205 12 2 47.092447634 51.244210762 28.903671587
206 12 2 47.0354254808 52.1084311287 28.3350577964
207 12 2 46.6784666545 52.9219075829 27.8018725884
208 12 2 46.0534143287 53.6240687427 27.3662933111
209 12 2 45.2165476827 54.1644893179 27.0816007929
210 12 2 44.2434522052 54.5074862403 26.9873229372
211 12 2 43.2221302786 54.6353710799 27.1056318602
212 12 2 42.2449799974 54.5500622981 27.4393229609
213 12 2 41.4003733284 54.2729103852 27.971560129
214 12 2 40.7646012427 53.84275182 28.6674103105
215 12 2 40.3949199972 53.3123692288 29.4770275626
216 12 2 40.32433238 52.74368039 30.3401963781
217 13 1 40.8033679352 8.55901237255 34.415790516
218 13 1 38.0204970743 12.9667567588 36.2448367862
219 13 2 40.5859828729 8.31480873709 33.9680295226
220 13 2 39.9813128465 7.86431517021 33.2574806386
221 13 2 39.1629707731 7.47035094694 32.75892427
222 13 2 38.1994866768 7.18397285719 32.5076554952
223 13 2 37.1726198896 7.04643150238 32.5164297895
224 13 2 36.1699069061 7.08541141332 32.7743003975
225 13 2 35.2766826664 7.31250767927 33.2476161004
226 13 2 34.568302504 7.72216908649 33.8830884351
227 13 2 34.1032737091 8.29220409661 34.6126487947
228 13 2 33.9179227449 8.98580354596 35.3596527004
229 13 2 34.0230841881 9.75489570251 36.0458657408
230 13 2 34.4031131858 10.5445278757 36.5985944293
231 13 2 35.0173114421 11.2978752075 36.9573120213
232 13 2 35.8036367592 11.961420106 37.0791753651
233 13 2 36.6843580177 12.4898302311 36.9429299407
234 13 2 37.5731401604 12.8500904163 36.5508471523
235 14 1 8.43619525627 48.0200857864 23.9327676895
236 14 1 10.8089036782 50.1486042075 28.4447135155
237 14 2 8.76096435913 48.0036679352 23.4837275219
238 14 2 9.40623562996 48.199073251 22.6970307819
239 14 2 10.0637549943 48.6678297633 22.0478885565
240 14 2 10.6905984711 49.3625971463 21.6031239553
241 14 2 11.2466381043 50.2154347869 21.4109316138
242 14 2 11.6981995193 51.1439943909 21.4964848809
243 14 2 12.0211312514 52.0590258094 21.8596413358
244 14 2 12.203006088 52.8725119514 22.474955769
245 14 2 12.2442537754 53.5056913065 23.2939994453
246 14 2 12.1581218488 53.8962368461 24.2497742535
247 14 2 11.9694681546 54.003936965 25.2628194051
248 14 2 11.7124951244 53.8143606627 26.248454073
249 14 2 11.4276323146 53.3401728895 27.1244958223
250 14 2 11.1578513606 52.6199801706 27.8187513198
251 14 2 10.9447492268 51.7148117248 28.2755965632
252 14 2 10.8247567548 50.7025568137 28.4610468604
253 15 1 49.1407652634 15.2863824749 37.4140969194
254 15 1 47.3468799425 10.1024640726 36.760677824
255 15 2 48.8058306844 15.6138231454 37.710716243
256 15 2 48.0150663423 16.1453034275 38.1177426257
257 15 2 47.0688906319 16.5197260588 38.3127021841
258 15 2 46.0472723848 16.6908732188 38.2913757204
259 15 2 45.0370568181 16.6310551025 38.0692579297
260 15 2 44.1240498251 16.3336337727 37.6801450998
261 15 2 43.3851969973 15.81362819 37.17305467
262 15 2 42.8815702396 15.1063452747 36.6077574226
263 15 2 42.6528012294 14.2641617756 36.0493295356
264 15 2 42.7134690949 13.351750269 35.5622210633
265 15 2 43.0517715667 12.4401844263 35.2043814858
266 15 2 43.6306007232 11.6004608391 35.0219777692
267 15 2 44.3909252783 10.8970278693 35.0451863695
268 15 2 45.2571711253 10.3819113533 35.2854427298
269 15 2 46.144109715 10.0899725862 35.7343989698
270 15 2 46.96462641 10.0357308075 36.3646847732
271 16 1 44.4714470462 54.5563877033 40.3834519886
272 16 1 41.573130286 51.2636982101 43.7414196656
273 16 2 44.4289326062 55.0980822637 40.4936387106
274 16 2 44.1185928913 56.0654256635 40.6970742518
275 16 2 43.533788136 56.8969384689 40.8971738864
276 16 2 42.7275576551 57.5168922992 41.0949102541
277 16 2 41.7731231263 57.8688418087 41.2914714006
278 16 2 40.7572146303 57.920769529 41.4881524895
279 16 2 39.7721654354 57.6680041761 41.686237752
280 16 2 38.9074960673 57.1336464255 41.8868834329
281 16 2 38.241754752 56.3664633465 42.0910124013
282 16 2 37.8353579554 55.4364434155 42.2992300343
283 16 2 37.7250835836 54.4284172521 42.511769038
284 16 2 37.9207187751 53.434325536 42.7284682372
285 16 2 38.4041678294 52.5448388589 42.9487872658
286 16 2 39.1311015816 51.841093343 43.1718558201
287 16 2 40.0349978875 51.3872953 43.3965529844
288 16 2 41.0332049388 51.2248689976 43.6216093997
289 17 1 52.3292934394 31.1195594254 3.57421425528
290 17 1 54.5660988266 27.096488556 6.62865258349
291 17 2 52.2761600017 31.607095862 3.83280011887
292 17 2 52.0753953583 32.3878964735 4.48356426524
293 17 2 51.7728959964 32.9378039913 5.30790998708
294 17 2 51.4123862176 33.2073834654 6.24108179212
295 17 2 51.0428778177 33.1727510976 7.20840498148
296 17 2 50.7142027929 32.837751186 8.13209204888
297 17 2 50.4724712862 32.2336057278 8.93833280393
298 17 2 50.3558687715 31.4160686169 9.56402197368
299 17 2 50.3911755494 30.4603438265 9.96251107964
300 17 2 50.5913257947 29.4542307671 10.1078603219
301 17 2 50.9542286404 28.4901216054 9.99720292241
302 17 2 51.4629587553 27.6565799651 9.65100642447
303 17 2 52.0872990422 27.0302685891 9.11120713053
304 17 2 52.7864948457 26.668961736 8.43738772047
305 17 2 53.5129686303 26.6062792099 7.70134644957
306 17 2 54.2166565452 26.8486220062 6.98055292938
307 18 1 48.0466121741 22.0690241827 9.37309279423
308 18 1 48.5806121676 26.9436155766 6.82923866892
309 18 2 48.3029881697 21.6457558105 9.12309915036
310 18 2 48.6688821452 20.933696477 8.46541904915
311 18 2 48.8723551003 20.3880844208 7.60847316302
312 18 2 48.911019002 20.0669936995 6.62416840198
313 18 2 48.7975077219 20.0080338514 5.59602009712
314 18 2 48.5583254927 20.2249218862 4.61153980135
315 18 2 48.2314311183 20.7062320165 3.75425884526
316 18 2 47.8627781301 21.4164370874 3.09611467962
317 18 2 47.5021262456 22.299146782 2.69089396897
318 18 2 47.198505903 23.2822474482 2.56933008095
319 18 2 46.995749268 24.284475065 2.73630182197
320 18 2 46.9284950489 25.222822241 3.17038874704
321 18 2 47.019031271 26.0201041162 3.82582357605
322 18 2 47.2752637824 26.6119935559 4.6366637591
323 18 2 47.6899956577 26.9528843967 5.52280196361
324 18 2 48.2415831776 27.0200483268 6.3972676436
325 19 1 8.54675655952 9.59938058414 29.4607459328
326 19 1 7.63345063089 4.2159923329 30.2991934735
327 19 2 8.10839071303 9.88485096089 29.277105968
328 19 2 7.27695101823 10.2453830731 28.7749360355
329 19 2 6.48428381323 10.3460620971 28.1153964632
330 19 2 5.78828884799 10.1695949443 27.368469182
331 19 2 5.23805445617 9.72394965915 26.6121012787
332 19 2 4.86938328478 9.0416291538 25.9251003278
333 19 2 4.70152897853 8.1767086539 25.3799512914
334 19 2 4.73544126163 7.19990688663 25.0362097087
335 19 2 4.95367937294 6.19214025764 24.9350733678
336 19 2 5.32200174474 5.23714753698 25.0956272375
337 19 2 5.79248703011 4.41385729398 25.5131039234
338 19 2 6.3079020056 3.78919376918 26.1593182028
339 19 2 6.80691822661 3.41197690861 26.9852360332
340 19 2 7.22970195116 3.30847255622 27.9254438732
341 19 2 7.52336782561 3.47999839244 28.9041109529
342 19 2 7.6467992432 3.90280383106 29.8419010453
343 20 1 31.1385589572 41.2789762177 36.4844444226
344 20 1 26.9322281679 38.5533131035 38.8072730731
345 20 2 31.0626313576 41.8257602239 36.4330261549
346 20 2 30.7165478393 42.7829801109 36.2396190776
347 20 2 30.1259427879 43.5832461412 35.9494295446
348 20 2 29.3354724885 44.1578322642 35.605252985
349 20 2 28.4080104094 44.4585825495 35.254805601
350 20 2 27.4189164536 44.4623004713 34.9463751635
351 20 2 26.4491681047 44.17286321 34.7244197114
352 20 2 25.5779795461 43.6208682573 34.6255153194
353 20 2 24.8755814996 42.8608445368 34.6750222873
354 20 2 24.3968198833 41.9662822383 34.8847736158
355 20 2 24.1761567519 41.0229343832 35.2519964608
356 20 2 24.2245291735 40.1210006661 35.7595648701
357 20 2 24.5283523443 39.3469059938 36.3775607684
358 20 2 25.0507578076 38.7754230855 37.06600091
359 20 2 25.734953915 38.4628571399 37.7784812448
360 20 2 26.5094022333 38.4419137666 38.4664065232
361 21 1 31.6760049431 40.2969815214 6.32549630581
362 21 1 27.4768994521 40.8337566011 9.87477463401
363 21 2 31.9295452855 40.7711011798 6.19018395455
364 21 2 32.1841101241 41.7309554139 5.89467320445
365 21 2 32.1340715452 42.7173768816 5.58175334302
366 21 2 31.7838540722 43.6498680128 5.2966954135
367 21 2 31.1652427322 44.4528468428 5.08223091849
368 21 2 30.3344859359 45.0625361076 4.97465695772
369 21 2 29.3671685855 45.43277637 5.00052784441
370 21 2 28.3513227125 45.5392333297 5.17423475061
371 21 2 27.3794035937 45.3816158292 5.49669399032
372 21 2 26.5398626996 44.9837023924 5.95526349992
373 21 2 25.9090855794 44.3911738754 6.52489512848
374 21 2 25.5444295221 43.6674497787 7.17041770977
375 21 2 25.4789955933 42.8879077294 7.84974282006
376 21 2 25.7186115612 42.1330130116 8.51770102544
377 21 2 26.2413007114 41.4809843711 9.130158955
378 21 2 26.9992849653 41.0006645857 9.64804193966
379 22 1 62.5724947464 44.6535269639 25.4815079584
380 22 1 57.0494822568 44.5553111301 25.4131138709
381 22 2 62.8169166542 44.2376667579 25.208195302
382 22 2 63.1280241031 43.326782172 24.8248528474
383 22 2 63.2156943415 42.3140468964 24.6245251107
384 22 2 63.060378231 41.2897797287 24.6102532437
385 22 2 62.6646741893 40.3453505676 24.7681199031
386 22 2 62.0530913517 39.5648522907 25.0685177787
387 22 2 61.2698156287 39.0174359139 25.4688482213
388 22 2 60.3746822783 38.7510076607 25.9174039952
389 22 2 59.4377220826 38.7878624382 26.3580822543
390 22 2 58.5327782284 39.122651716 26.7354981675
391 22 2 57.7307756989 39.7228710301 27.0000330969
392 22 2 57.0932566506 40.5318226781 27.1123572049
393 22 2 56.6667710101 41.4737835636 27.0470142634
394 22 2 56.4786335733 42.4609071532 26.7947419209
395 22 2 56.5344343341 43.4012304542 26.3633159413
396 22 2 56.8175289717 44.2070561948 25.7768414635
397 23 1 17.5271833636 53.5325999505 42.3479529758
398 23 1 12.8980530534 50.8277614695 43.6794905923
399 23 2 17.9119720162 53.5474925858 42.7468232433
400 23 2 18.4516463205 53.648875265 43.6254148486
401 23 2 18.7142135554 53.822605324 44.6124945439
402 23 2 18.674139191 54.0352834714 45.6257132084
403 23 2 18.33347367 54.2499604017 46.580339224
404 23 2 17.7216655161 54.4295046256 47.3969815359
405 23 2 16.8928771789 54.5399869062 48.0088259352
406 23 2 15.9210482719 54.5537728181 48.3677249952
407 23 2 14.8931561742 54.4520415513 48.448586581
408 23 2 13.9012882749 54.2265013782 48.2516609303
409 23 2 13.0342484538 53.8801454217 47.8025178448
410 23 2 12.3694628449 53.4269788409 47.1497160714
411 23 2 11.9659226512 52.8907422975 46.3603773021
412 23 2 11.8588072547 52.3027480583 45.514068211
413 23 2 12.0562777091 51.6990259658 44.6955481649
414 23 2 12.538732882 51.1170394144 43.9870436333
415 24 1 2.2257143833 36.605572021 24.5077817174
416 24 1 6.59802369599 37.8182961494 27.6590041031
417 24 2 2.03122812504 37.0277940389 24.2056472259
418 24 2 1.67295289909 37.9311907752 23.8465327447
419 24 2 1.36382393016 38.9176997487 23.7780540121
420 24 2 1.14824966949 39.9062293717 24.0011838708
421 24 2 1.06211130668 40.8155038793 24.4903158198
422 24 2 1.12949229521 41.5714713987 25.1955979783
423 24 2 1.36048320999 42.1140535793 26.047476952
424 24 2 1.75026201846 42.4026215738 26.9630374384
425 24 2 2.27953359595 42.4196992491 27.8535597354
426 24 2 2.91628842471 42.1725560889 28.632606305
427 24 2 3.61872017592 41.6925446001 29.2239003238
428 24 2 4.33903624484 41.0322426152 29.5682781115
429 24 2 5.02781391895 40.2606609634 29.6290817425
430 24 2 5.63850512611 39.4569533185 29.3955003175
431 24 2 6.13167916697 38.7032015523 28.8835553482
432 24 2 6.47861671777 38.0769341921 28.1346404394
433 25 1 15.5944792094 58.7870678526 12.2554205534
434 25 1 19.4175164554 56.2808267846 15.3572156767
435 25 2 15.7340638639 58.8563680564 11.7233536459
436 25 2 16.191848786 59.0765259761 10.8203511727
437 25 2 16.8759144969 59.3826589652 10.1049584781
438 25 2 17.7332385194 59.7304906656 9.63863387044
439 25 2 18.6950063445 60.0719439932 9.4601337673
440 25 2 19.6828836898 60.3595232352 9.58198015216
441 25 2 20.6161564596 60.550643158 9.9893192288
442 25 2 21.4190876196 60.6115105372 10.6412753052
443 25 2 22.0278204248 60.5202043193 11.4746765037
444 25 2 22.3961987911 60.2686736677 12.4098127086
445 25 2 22.4999742992 59.8634717747 13.3577009304
446 25 2 22.3390163731 59.3251585552 14.2281958672
447 25 2 21.9373241816 58.6864266662 14.9382064082
448 25 2 21.3408391785 57.9891216577 15.4192691666
449 25 2 20.6132576618 57.2804278632 15.6237887336
450 25 2 19.8302250262 56.6085676734 15.5293758737
451 26 1 45.6309965285 33.4424159543 2.93992198323
452 26 1 42.851763742 28.6689477234 2.85128097322
453 26 2 46.1417243018 33.4193697759 2.72542815291
454 26 2 47.1188790658 33.1909566558 2.467656888
455 26 2 48.044896465 32.7307285721 2.4033770429
456 26 2 48.8328146932 32.068767731 2.52355491814
457 26 2 49.4082593146 31.2535437406 2.80234398604
458 26 2 49.7162222947 30.3474957353 3.19944073264
459 26 2 49.7260758357 29.4213412157 3.66375821529
460 26 2 49.4343640183 28.5476303374 4.13808250091
461 26 2 48.8651177998 27.7941331584 4.56428756305
462 26 2 48.0676646562 27.217662579 4.88863331391
463 26 2 47.1121325148 26.8588959986 5.06666386963
464 26 2 46.0830577812 26.7386676785 5.06725958534
465 26 2 45.0716800716 26.8560697553 4.8754735276
466 26 2 44.1676259656 27.1885349902 4.49389384741
467 26 2 43.4507397836 27.6938937121 3.94240787719
468 26 2 42.9838059895 28.3142174709 3.25638945359
469 27 1 19.9751431934 5.87080654902 9.74948483792
470 27 1 16.2703429801 5.08996970081 13.7722625173
471 27 2 20.1048586132 6.40077270461 9.65104007249
472 27 2 20.1138094871 7.41876103728 9.45850527671
473 27 2 19.8197114011 8.39700257001 9.28530068489
474 27 2 19.2495411746 9.25366850834 9.16497033095
475 27 2 18.4554388646 9.91801134826 9.12623890338
476 27 2 17.5099553391 10.3368133222 9.19039356662
477 27 2 16.4994394592 10.4792370561 9.36934369293
478 27 2 15.5161676114 10.3396363141 9.66453535491
479 27 2 14.6499329614 9.93807063711 10.0668195199
480 27 2 13.9798610471 9.31847697006 10.5572859598
481 27 2 13.5671976975 8.54466492625 11.1089868678
482 27 2 13.4497266388 7.69450071189 11.6893930791
483 27 2 13.6383256088 6.85280982942 12.2633590172
484 27 2 14.1159748804 6.10364545978 12.7963261192
485 27 2 14.8393085639 5.52262723953 13.2574727566
486 27 2 15.7425672924 5.17004873313 13.6225235442
487 28 1 32.975246089 8.36455945832 13.0145835275
488 28 1 29.9866740757 11.1397980114 9.28839521281
489 28 2 33.4807629271 8.21430413692 12.8435348421
490 28 2 34.3082726361 7.84933403559 12.3380899708
491 28 2 34.9220317435 7.41748747961 11.6237662898
492 28 2 35.2714195967 6.97341864126 10.7553303359
493 28 2 35.3299122758 6.57289572123 9.80159556765
494 28 2 35.097500179 6.26771782609 8.83915020258
495 28 2 34.6006888969 6.10099361828 7.94537640586
496 28 2 33.8900832995 6.10321207666 7.19139711271
497 28 2 33.0357750369 6.28946350762 6.635593363
498 28 2 32.1209538734 6.65806410397 6.3182830255
499 28 2 31.2343251621 7.19070941948 6.25804593189
500 28 2 30.4620245898 7.85414277023 6.45003037476
501 28 2 29.8797671388 8.60318649243 6.86639532778
502 28 2 29.5459458687 9.38485976577 7.45884808084
503 28 2 29.4963095456 10.1432076736 8.16304599149
504 28 2 29.740704237 10.8244013438 8.90446114485
505 29 1 19.5649755283 34.572438537 33.6289798114
506 29 1 22.427083812 39.2963198193 33.5228060625
507 29 2 19.0330899791 34.6181677497 33.4793529763
508 29 2 18.0379702152 34.8790803432 33.3564250088
509 29 2 17.1221132004 35.3571867966 33.4343362328
510 29 2 16.3700506962 36.0217248412 33.691709868
511 29 2 15.8513850322 36.8249394674 34.0908116151
512 29 2 15.6144450399 37.7064356654 34.5809890362
513 29 2 15.6818810087 38.5986832696 35.1032883891
514 29 2 16.0486001729 39.4331721525 35.5958281033
515 29 2 16.6822309032 40.1466567396 35.99943912
516 29 2 17.5260732945 40.6869206745 36.2630579934
517 29 2 18.5042672108 41.0175362003 36.3483811874
518 29 2 19.5287067335 41.1211844524 36.2333563406
519 29 2 20.5070707806 41.0012340262 35.9141922798
520 29 2 21.3512379267 40.6814339395 35.4057045758
521 29 2 21.9853184352 40.203748972 34.7399651435
522 29 2 22.3525714048 39.6245346886 33.9633789722
523 30 1 8.39783171621 14.2550546706 39.4392780693
524 30 1 7.60090229652 8.88090612573 38.4385673325
525 30 2 8.10808719988 14.4587051142 39.8658413121
526 30 2 7.38532174649 14.7358491512 40.5545003666
527 30 2 6.48629508195 14.8444706423 41.0578913074
528 30 2 5.49370034467 14.7601175349 41.3426548093
529 30 2 4.49875915281 14.4759268953 41.3953588535
530 30 2 3.59290699757 14.0032504468 41.2237230209
531 30 2 2.85945914259 13.3706198902 40.8559148723
532 30 2 2.36601666036 12.6211463161 40.3379825509
533 30 2 2.15830477508 11.8085907435 39.7296576169
534 30 2 2.25600513075 10.9924639471 39.0989106756
535 30 2 2.65096186192 10.2326022091 38.5157560385
536 30 2 3.30792497897 9.58371340208 38.0458701054
537 30 2 4.16776331052 9.09039051238 37.7446051369
538 30 2 5.15285415162 8.78304710894 37.651944043
539 30 2 6.17415836584 8.67514522754 37.7888560483
540 30 2 7.13933606457 8.76196834229 38.1553854029
541 31 1 35.2247262786 31.7894533363 1.36437888379
542 31 1 35.839153639 28.7914952308 5.96358721543
543 31 2 35.4680698983 32.2874814094 1.37593350232
544 31 2 35.8090693469 33.2392716697 1.60235056801
545 31 2 35.9890379354 34.1387748165 2.08396805861
546 31 2 36.0078390327 34.9001754437 2.78636795526
547 31 2 35.8800259935 35.4502458208 3.65500851291
548 31 2 35.6335156593 35.7350204049 4.62019559455
549 31 2 35.3070438126 35.7247146553 5.60343510557
550 31 2 34.9466345143 35.4164398153 6.52458752068
551 31 2 34.6014051331 34.8344662142 7.30917238743
552 31 2 34.3190894289 34.0280110919 7.89515702038
553 31 2 34.1416867482 33.0667525789 8.23861061461
554 31 2 34.1016338957 32.0344787213 8.31770842114
555 31 2 34.2188486062 31.0214504237 8.13472101448
556 31 2 34.4989140969 30.1161744094 7.71580733582
557 31 2 34.9325701713 29.3973360694 7.10863037547
558 31 2 35.4965572618 28.9266274985 6.3780128187
559 32 1 16.632258666 11.844513949 51.8283107431
560 32 1 17.2147262962 10.6163049466 57.1827691814
561 32 2 16.2485109795 12.2289384036 51.7172380645
562 32 2 15.3947019339 12.8113090079 51.6444053525
563 32 2 14.4342760493 13.1809559556 51.7643772891
564 32 2 13.4570738658 13.3163511573 52.0809117153
565 32 2 12.5544650379 13.2173179446 52.5798503266
566 32 2 11.8110202355 12.9050471722 53.2304091645
567 32 2 11.2968027527 12.4201657286 53.9879844922
568 32 2 11.0609824262 11.8190335034 54.7982183058
569 32 2 11.1273539359 11.1686063345 55.6019529211
570 32 2 11.4921679838 10.540333162 56.3406230385
571 32 2 12.1244730318 10.0036436486 56.9615938136
572 32 2 12.9689364525 9.61961985103 57.4229583824
573 32 2 13.9508879495 9.43542875423 57.6973575598
574 32 2 14.9831255559 9.48002312652 57.7744735568
575 32 2 15.9738638604 9.76150255219 57.6619704187
576 32 2 16.835100002 10.2663751761 57.3847954682
577 33 1 49.6244137432 45.673825861 56.5508680671
578 33 1 50.7594610736 49.8518689167 53.1195979168
579 33 2 49.0843624006 45.5802443252 56.6343463972
580 33 2 48.0692663698 45.636436396 56.8340274193
581 33 2 47.1219164958 45.9901796335 57.0595134484
582 33 2 46.3214035669 46.612401792 57.2727472336
583 33 2 45.7334345761 47.4495594899 57.4367882832
584 33 2 45.4043437049 48.4285185455 57.5191798921
585 33 2 45.3568690858 49.4632199623 57.4949074831
586 33 2 45.5880802827 50.4625239766 57.3486786196
587 33 2 46.0696453924 51.3385172035 57.0763168696
588 33 2 46.7504134213 52.0145257065 56.6851424766
589 33 2 47.5610765626 52.4321036224 56.193305139
590 33 2 48.4204874169 52.5563603452 55.6281297134
591 33 2 49.243055361 52.3791407117 55.0236256275
592 33 2 49.9465479048 51.9197683228 54.4173870108
593 33 2 50.4595859623 51.2232842488 53.847166091
594 33 2 50.7281498652 50.3563416566 53.3474321787