LAMMPS input file for bananas

4320 atoms

2 atom types

0 100.793683992 xlo xhi
0 100.793683992 ylo yhi
0 100.793683992 zlo zhi

Masses

 1 1
 2 1

Atoms

1 1 1 87.227730604 24.8145487838 38.3820943624
2 1 1 83.8150482339 24.1038609241 42.6677113387
3 1 2 87.6415536639 24.4470237084 38.3495769509
4 1 2 88.4486918739 23.8186206589 38.5141598441
5 1 2 89.2274889965 23.3026791369 38.96218819
6 1 2 89.8982375407 22.9300322813 39.6583783384
7 1 2 90.3910783541 22.7184523052 40.5448273542
8 1 2 90.6523680987 22.6710306063 41.546290715
9 1 2 90.6495686975 22.7758959939 42.5770406483
10 1 2 90.3742130934 23.0072967166 43.5486799887
11 1 2 89.8426769985 23.3279476653 44.3781993436
12 1 2 89.0946862921 23.6924288111 44.995543177
13 1 2 88.1896961127 24.0513251203 45.3499951846
14 1 2 87.2014716812 24.3557306017 45.4148009495
15 1 2 86.2113647982 24.5617059575 45.1896065354
16 1 2 85.3008988445 24.6342835329 44.7004907477
17 1 2 84.5443381432 24.5506545242 43.997588119
18 1 2 84.001918965 24.3022479403 43.1505192816
19 2 1 30.0330937446 93.5780227967 29.6201841474
20 2 1 34.1833609269 96.4804427298 31.826817762
21 2 2 29.7262614586 93.2948556176 29.9849469264
22 2 2 29.3619073099 92.6883082876 30.7417800665
23 2 2 29.2970119182 92.040507438 31.5477531793
24 2 2 29.5367473531 91.422731019 32.3442010612
25 2 2 30.0585193985 90.903520334 33.0733267076
26 2 2 30.8140269552 90.5424326832 33.6834693561
27 2 2 31.7336645566 90.384612875 34.1338132262
28 2 2 32.7328667214 90.4566783971 34.3981077692
29 2 2 33.7198158711 90.7642933038 34.4670603352
30 2 2 34.6038112564 91.2916519527 34.3491831734
31 2 2 35.3035360889 92.0029196464 34.0700175633
32 2 2 35.7544693483 92.8454988698 33.6698057955
33 2 2 35.9147667013 93.7548234126 33.1998231941
34 2 2 35.7690745006 94.6602434074 32.7177045086
35 2 2 35.3299292291 95.4914648755 32.2821906597
36 2 2 34.6366148325 96.1849568359 31.9477746621
37 3 1 36.1717364043 19.9155192543 26.0553004866
38 3 1 41.3143264156 21.5665836842 27.2153631077
39 3 2 36.0757145308 19.8093772142 25.5196744461
40 3 2 35.9925587519 19.8233028513 24.487036463
41 3 2 36.0547504914 20.1042008226 23.4917081109
42 3 2 36.2731293404 20.6182298856 22.6190484912
43 3 2 36.6442988522 21.3102995219 21.9432357781
44 3 2 37.1509361196 22.1090912905 21.5205060762
45 3 2 37.7633707117 22.9335593135 21.3840276505
46 3 2 38.4422890539 23.7003173909 21.5408777267
47 3 2 39.1423177558 24.3312394302 21.9713974221
48 3 2 39.8161592739 24.7605804304 22.6309835993
49 3 2 40.4189029568 24.9409689637 23.4541543233
50 3 2 40.9121185304 24.8477249541 24.3605173653
51 3 2 41.2673589153 24.4811092006 25.2620977385
52 3 2 41.4687531016 23.8662996061 26.0713563841
53 3 2 41.5144527493 23.0510962785 26.7091691216
54 3 2 41.4168006594 22.1015646792 27.112038607
55 4 1 29.6636023326 51.0326547917 96.1340951326
56 4 1 31.7856390027 55.7325012935 94.1525820006
57 4 2 29.5212298435 50.6600317952 95.7490447919
58 4 2 29.1422346573 50.1461612525 94.9331099137
59 4 2 28.6592732713 49.9116769627 94.0469860913
60 4 2 28.1305230961 49.9799970114 93.1586136276
61 4 2 27.618335068 50.3469396778 92.3361377832
62 4 2 27.1835505279 50.9811045878 91.641697518
63 4 2 26.8799556958 51.8267347739 91.1257616912
64 4 2 26.7493792003 52.808798774 90.8225289593
65 4 2 26.817879511 53.8398295485 90.7468106603
66 4 2 27.0933697788 54.827896867 90.8926807999
67 4 2 27.5648965732 55.6849865035 91.2340161896
68 4 2 28.2036382584 56.3350224976 91.7268775059
69 4 2 28.9655320081 56.7208012749 92.3135142422
70 4 2 29.7952900144 56.8092056002 92.9276285129
71 4 2 30.6314388239 56.5942231245 93.5004179285
72 4 2 31.4119224787 56.0974943952 93.9668467498
73 5 1 59.9756302617 8.32105007821 64.7627611508
74 5 1 60.1625279228 8.97067884561 70.245556313
75 5 2 59.5840570425 8.61757977558 64.5056188933
76 5 2 58.7116232404 9.07776669034 64.188542758
77 5 2 57.7273150001 9.39316568238 64.1170530728
78 5 2 56.7212892245 9.55148715333 64.3075693761
79 5 2 55.7856823117 9.55475870102 64.7526300606
80 5 2 55.0062121688 9.41914030935 65.4215724792
81 5 2 54.4543652535 9.17345140901 66.2633277628
82 5 2 54.1808807748 8.85654406333 67.2110756119
83 5 2 54.2111259495 8.51376170662 68.1883347876
84 5 2 54.5427838484 8.19280621124 69.1159341727
85 5 2 55.1460645781 7.93938998953 69.9192290071
86 5 2 55.9664205499 7.79306942951 70.5349045583
87 5 2 56.9295183473 7.78363943589 70.91674709
88 5 2 57.9480140178 7.92841770414 71.0398561205
89 5 2 58.9295142408 8.23066625882 70.9029140354
90 5 2 59.7849977319 8.67929412875 70.5283061843
91 6 1 97.8681217027 18.838087564 31.9928423966
92 6 1 93.1061117246 16.2935560734 33.1618640062
93 6 2 97.8838467605 19.3763690002 32.1247037102
94 6 2 97.7102436897 20.3897723083 32.2524758521
95 6 2 97.2793706238 21.3317405347 32.2302436083
96 6 2 96.6207737315 22.1166570879 32.076600681
97 6 2 95.7847555995 22.6732202164 31.8221185046
98 6 2 94.8377902865 22.9509419732 31.5065597417
99 6 2 93.8564643899 22.924750057 31.1752540226
100 6 2 92.9204963829 22.5972730855 30.8749662705
101 6 2 92.1054704878 21.9986010039 30.6496342037
102 6 2 91.4759473771 21.1835424668 30.5363635303
103 6 2 91.0795796401 20.2266291761 30.5620458619
104 6 2 90.9427683768 19.215322515 30.7409076148
105 6 2 91.0682568086 18.2420416773 31.0732133109
106 6 2 91.4348802407 17.3957399046 31.5452414665
107 6 2 91.9994951675 16.7537966359 32.1305352691
108 6 2 92.7009116878 16.374964579 32.7923140456
109 7 1 68.1366584063 66.3619365409 20.1106484939
110 7 1 63.7700771566 64.9507339343 23.1862730571
111 7 2 68.629018752 66.2368153672 20.332701573
112 7 2 69.4616225244 66.1124002871 20.9366401934
113 7 2 70.1109730088 66.1253961866 21.7438731624
114 7 2 70.5142541125 66.257631412 22.6890335761
115 7 2 70.6310783093 66.480065964 23.6941828129
116 7 2 70.4471678541 66.7554384155 24.6759144304
117 7 2 69.9756561618 67.0416621913 25.5529564392
118 7 2 69.2558907313 67.2956616473 26.2535790285
119 7 2 68.3498467261 67.4772982997 26.7221325455
120 7 2 67.336478104 67.5530293411 26.9241198135
121 7 2 66.3045211749 67.4989649773 26.8493404566
122 7 2 65.344406523 67.3030459185 26.5128206373
123 7 2 64.5400165011 66.9661425511 25.9534434616
124 7 2 63.961039578 66.5019756044 25.2304048877
125 7 2 63.6566184211 65.935865543 24.4178181731
126 7 2 63.6508706738 65.3024246736 23.5979586488
127 8 1 71.666423985 46.9365156505 36.4406053794
128 8 1 71.0309725448 52.416031929 36.7390913613
129 8 2 72.1894934523 46.7590700591 36.4884904764
130 8 2 73.2086462567 46.5889568467 36.4120766852
131 8 2 74.2058571035 46.6518136308 36.1380884318
132 8 2 75.0972018668 46.9538690357 35.7048251672
133 8 2 75.8084058314 47.4795493705 35.165103834
134 8 2 76.2816136344 48.1928981296 34.5814447432
135 8 2 76.4806626269 49.0408533322 34.0203730151
136 8 2 76.3943790028 49.95808398 33.546354992
137 8 2 76.0375962613 50.8729448029 33.215922304
138 8 2 75.4498031734 51.7140065341 33.0725191615
139 8 2 74.6915444856 52.4165664967 33.1425425316
140 8 2 73.838902428 52.92854608 33.4329361253
141 8 2 72.9765620231 53.2152375651 33.9305574969
142 8 2 72.1900922713 53.2624676416 34.6033759424
143 8 2 71.5581467661 53.077889266 35.4033920128
144 8 2 71.1452946288 52.6902841161 36.2710125357
145 9 1 80.391470018 91.0976668556 15.8370990455
146 9 1 77.2471859984 86.9409453157 14.0059422786
147 9 2 80.1143770263 91.5073373275 16.0876407914
148 9 2 79.4628822562 92.2646238386 16.362452938
149 9 2 78.6791361474 92.9421820404 16.3727936927
150 9 2 77.821120208 93.4685206173 16.127383095
151 9 2 76.9535854429 93.7859315182 15.6582522364
152 9 2 76.1421504724 93.8557498913 15.0178237122
153 9 2 75.4473205704 93.6618782821 14.2741334423
154 9 2 74.9189727706 93.2122538729 13.5046293784
155 9 2 74.591809708 92.5381250304 12.7891123308
156 9 2 74.4821965665 91.6912031003 12.2024623375
157 9 2 74.5866694361 90.7389490563 11.8078135488
158 9 2 74.8822510393 89.7584246129 11.6507997186
159 9 2 75.328545048 88.8292682557 11.7553948092
160 9 2 75.8714181014 88.0264364069 12.1217278293
161 9 2 76.4479339169 87.4133713472 12.7260710746
162 9 2 76.992089764 87.0362186215 13.5230028451
163 10 1 43.9268799619 94.6401433613 6.97700511684
164 10 1 41.5915906924 90.9320781573 10.3407333359
165 10 2 43.8035328953 95.1686497358 7.09035458179
166 10 2 43.3516314438 96.0767985533 7.30130674372
167 10 2 42.649064028 96.809006291 7.51040209611
168 10 2 41.7597640342 97.2984792296 7.71779489885
169 10 2 40.7646850243 97.5005482784 7.92379459468
170 10 2 39.7544220345 97.3967404426 8.12883760432
171 10 2 38.8209540803 96.9964625882 8.33344754784
172 10 2 38.049260515 96.3361440309 8.53818751818
173 10 2 37.5095753888 95.4759161015 8.74360875665
174 10 2 37.2509858027 94.4941313357 8.9502004088
175 10 2 37.2969577503 93.48022185 9.15834494011
176 10 2 37.6431972559 92.5265478431 9.36828327525
177 10 2 38.2580417581 91.719979211 9.58009283849
178 10 2 39.085346068 91.1339775879 9.79368049666
179 10 2 40.0495998532 90.8219005146 10.008791048
180 10 2 41.0628102025 90.8121380414 10.225030483
181 11 1 58.9913977211 65.6530883829 61.0771233055
182 11 1 60.1870197902 63.5456691455 66.0417243053
183 11 2 58.8382636279 66.1859313771 61.0802667313
184 11 2 58.4040351666 67.1103533263 61.2544497223
185 11 2 57.8226499937 67.8743352669 61.6440301201
186 11 2 57.1587455195 68.4155666043 62.2269104678
187 11 2 56.4844805678 68.6920398659 62.9633745346
188 11 2 55.8729582924 68.6858795701 63.7997073444
189 11 2 55.3915630198 68.4049715287 64.6730911517
190 11 2 55.0958183478 67.8822440762 65.517331112
191 11 2 55.0243263186 67.17266674 66.2688887644
192 11 2 55.1952489449 66.3482399151 66.8726733927
193 11 2 55.6046527917 65.4914322203 67.2870633967
194 11 2 56.2268674983 64.6876637042 67.4876999902
195 11 2 57.0168255625 64.017520036 67.4697074391
196 11 2 57.9141701239 63.5494073373 67.2481374712
197 11 2 58.8487563296 63.3333171467 66.856597352
198 11 2 59.7470448503 63.3962698248 66.3441866719
199 12 1 23.549856997 11.728016197 68.4944001792
200 12 1 23.5754239575 6.2049505259 68.3800193041
201 12 2 23.4137427286 11.9508977117 68.9834587896
202 12 2 22.9762859841 12.2203995562 69.8831533843
203 12 2 22.3439874637 12.2676824539 70.702551285
204 12 2 21.5830984652 12.0764402115 71.3792523623
205 12 2 20.771590965 11.6521075645 71.8638629203
206 12 2 19.9920506805 11.0213648158 72.1244978011
207 12 2 19.3241496029 10.2297059975 72.1496866306
208 12 2 18.837384108 9.33729221132 71.9494193135
209 12 2 18.5847405473 8.41346810488 71.5542354793
210 12 2 18.5978656841 7.53044129265 71.0124408772
211 12 2 18.8841821748 6.75670082476 70.3857044361
212 12 2 19.4262120145 6.15077459313 69.7434373063
213 12 2 20.1831696095 5.75589467061 69.1564662191
214 12 2 21.0946792762 5.596056823 68.6905778192
215 12 2 22.0862783224 5.67383335923 68.4005223879
216 12 2 23.076204123 5.9701386722 68.3250235015
217 13 1 29.4641901902 8.56060286109 43.5605751068
218 13 1 29.6343225314 9.26059558099 38.0834356856
219 13 2 29.0725581049 8.21125898654 43.7393620054
220 13 2 28.1998093529 7.68949443613 43.938161857
221 13 2 27.2148869469 7.36799429138 43.9342220329
222 13 2 26.2079338529 7.26249878621 43.714298919
223 13 2 25.2711010752 7.36905990897 43.2848352011
224 13 2 24.4901483389 7.66440125316 42.6713726308
225 13 2 23.9366273197 8.10803959964 41.9162239633
226 13 2 23.6613599003 8.6459748539 41.074616263
227 13 2 23.6898058915 9.21561201031 40.2096571039
228 13 2 24.0197424383 9.75146651959 39.3865824833
229 13 2 24.6214666277 10.1911330304 38.6668107345
230 13 2 25.4405028291 10.4809734705 38.1023444102
231 13 2 26.4025680032 10.5810060135 37.731030389
232 13 2 27.4203424018 10.4685493154 37.5731102329
233 13 2 28.4014285301 10.1402898587 37.6293752237
234 13 2 29.2567729308 9.6125839705 37.8810942397
235 14 1 47.8325862456 69.4446574815 73.7384283168
236 14 1 44.4285175948 65.8475807162 76.1861510188
237 14 2 48.0914236194 69.793134929 74.0833170968
238 14 2 48.3580292691 70.4812312012 74.8105687444
239 14 2 48.3251001051 71.1522539036 75.599298238
240 14 2 47.9993666641 71.7336286754 76.3926147646
241 14 2 47.4142478101 72.160952325 77.1332094151
242 14 2 46.626804694 72.3838630089 77.7685787385
243 14 2 45.7125397828 72.3706305791 78.2558102913
244 14 2 44.7585150108 72.1110487013 78.5654939917
245 14 2 43.8554163175 71.6173651348 78.6844027702
246 14 2 43.0892878665 70.9231653823 78.6166981814
247 14 2 42.5336893499 70.0803114607 78.3835510897
248 14 2 42.2429912187 69.1542148174 78.0212120013
249 14 2 42.2474189622 68.2178742511 77.5777069279
250 14 2 42.5502981348 67.3452222668 77.1084599434
251 14 2 43.1277512407 66.6043863257 76.6712414284
252 14 2 43.9308741043 66.0514792086 76.3209024539
253 15 1 80.3325396138 29.8977482208 0.695038270438
254 15 1 84.4555961044 26.5380049842 2.18853136416
255 15 2 80.0654640928 30.1410233576 1.11559678238
256 15 2 79.5534086278 30.376124984 1.9850658371
257 15 2 79.0778234877 30.3110763132 2.903236549
258 15 2 78.6964741834 29.9555283211 3.79856238052
259 15 2 78.4585368811 29.3456102203 4.60157904392
260 15 2 78.4001161261 28.5406363792 5.25123598539
261 15 2 78.5409540106 27.6176999752 5.7004609799
262 15 2 78.882630734 26.6646461583 5.92045063867
263 15 2 79.4084205728 25.7720652002 5.90329576107
264 15 2 80.0848163846 25.0250354329 5.66270223714
265 15 2 80.8645836955 24.4953685867 5.23274179234
266 15 2 81.6910659954 24.2350643424 4.66474644082
267 15 2 82.5033488283 24.2715706995 4.02262970954
268 15 2 83.2418119811 24.6052821648 3.37706109113
269 15 2 83.8535637076 25.2095037936 2.7990247085
270 15 2 84.2972616693 26.0328843628 2.35334930177
271 16 1 65.4069834993 25.8958105481 17.932352638
272 16 1 68.1881115224 27.4203955552 22.4555106649
273 16 2 65.1015664891 26.2959438838 17.6999836394
274 16 2 64.4498610672 27.0720990185 17.4847784788
275 16 2 63.7551287951 27.8357066191 17.5725310489
276 16 2 63.0920225698 28.532519604 17.9574879416
277 16 2 62.5323126586 29.114379042 18.6068063696
278 16 2 62.1383450311 29.5436037106 19.4635476978
279 16 2 61.9573586906 29.7964246386 20.4518672484
280 16 2 62.0171799656 29.8651515842 21.4839273402
281 16 2 62.3236862139 29.7588739801 22.4679034587
282 16 2 62.8602701174 29.5026324559 23.3163538149
283 16 2 63.5893533946 29.1351364517 23.954189431
284 16 2 64.4558119606 28.7052359562 24.3255182995
285 16 2 65.3920003401 28.2674689606 24.3987397909
286 16 2 66.3239173717 27.8770904666 24.1694249664
287 16 2 67.177951216 27.5850361406 23.6607202636
288 16 2 67.8875888778 27.4332796638 22.9212377608
289 17 1 99.2119279036 89.4546566913 39.5597090327
290 17 1 98.388299299 85.4178062535 43.2398538025
291 17 2 98.7676330908 89.7692299256 39.4546976636
292 17 2 97.8312101701 90.1495539153 39.2268473015
293 17 2 96.8256770075 90.2316293407 38.9910153811
294 17 2 95.8346866952 90.0093626576 38.7861111753
295 17 2 94.9405667831 89.5044002919 38.6482249783
296 17 2 94.2168153436 88.7641556251 38.6073385719
297 17 2 93.7214018176 87.8574873918 38.6845924665
298 17 2 93.4914832559 86.8684233898 38.8903589995
299 17 2 93.5400175526 85.888501571 39.223296925
300 17 2 93.8545823683 85.0084266017 39.6704736645
301 17 2 94.3985073925 84.3098023748 40.2085440769
302 17 2 95.1142167451 83.8576940329 40.8058783059
303 17 2 95.9284768632 83.6946974547 41.4254447565
304 17 2 96.7590715453 83.8370567543 42.0281854263
305 17 2 97.522295738 84.2731836736 42.5765759377
306 17 2 98.140585028 84.9647138214 43.038045785
307 18 1 68.8233312139 82.6777288254 73.6885559731
308 18 1 65.8009648084 78.3017219583 72.1939469036
309 18 2 68.5868102899 83.0067195047 74.0669797745
310 18 2 67.9612931934 83.6136181705 74.6272050709
311 18 2 67.1409102 84.1507742622 74.9616973556
312 18 2 66.1917814042 84.5564331569 75.051393516
313 18 2 65.191761736 84.7808258496 74.8995429518
314 18 2 64.2233446927 84.7907052655 74.5314114012
315 18 2 63.3661432766 84.5723766412 73.9919780361
316 18 2 62.6896334831 84.1329457665 73.3418357311
317 18 2 62.2468217489 83.4996713103 72.6516681846
318 18 2 62.0694135573 82.7174802658 71.9958072888
319 18 2 62.164923568 81.8448729752 71.4454579765
320 18 2 62.5159906761 80.94859098 71.0622080817
321 18 2 63.0819604302 80.0975337076 70.892414773
322 18 2 63.8025905773 79.3564784729 70.9629792216
323 18 2 64.6035419828 78.7801761991 71.2788946318
324 18 2 65.403154444 78.4083610171 71.8227911233
325 19 1 71.709290256 8.94437494532 28.3191384194
326 19 1 77.0958568645 7.79957580886 28.7576884974
327 19 2 71.5869630856 9.4842651024 28.2885398946
328 19 2 71.4961500417 10.5077563287 28.4214636018
329 19 2 71.6032730282 11.4735784182 28.780855266
330 19 2 71.9129462034 12.3003443369 29.3230827565
331 19 2 72.4113218173 12.9193416489 29.9878489457
332 19 2 73.0673523968 13.2807954716 30.7036876315
333 19 2 73.8356206402 13.3584053231 31.3944774898
334 19 2 74.6604790827 13.1517423407 31.9863803304
335 19 2 75.4811222141 12.6862883708 32.4145712504
336 19 2 76.2371287385 12.0111133667 32.629147251
337 19 2 76.8739688141 11.1944027934 32.5996757621
338 19 2 77.3479743023 10.3172427046 32.3179684904
339 19 2 77.6303190018 9.46622896586 31.7988277596
340 19 2 77.7096460802 8.7255742729 31.0786973189
341 19 2 77.5931032185 8.16943238928 30.2123405922
342 19 2 77.3056911191 7.85513922918 29.2678491387
343 20 1 80.4069820226 5.58303447175 95.4946575241
344 20 1 78.4499145128 0.737217411079 97.2851699754
345 20 2 80.1714515125 6.0293102794 95.7243200382
346 20 2 79.5310940108 6.75516731098 96.0938113791
347 20 2 78.6807426474 7.27782009718 96.3716362068
348 20 2 77.6955417623 7.54387232038 96.5506486135
349 20 2 76.6629268693 7.52331611844 96.6327091791
350 20 2 75.6746551421 7.21226722114 96.6285153852
351 20 2 74.8184419935 6.63331899103 96.5566265671
352 20 2 74.1699660497 5.83348309879 96.4417722813
353 20 2 73.7859712459 4.87990453515 96.3125982712
354 20 2 73.6990947686 3.8537415244 96.1990554854
355 20 2 73.9148922625 2.8427681692 96.1296701276
356 20 2 74.411331449 1.93337407568 96.1289435704
357 20 2 75.1408003095 1.20269017179 96.2151191201
358 20 2 76.0344467932 0.71155842933 96.3985191881
359 20 2 77.0084544978 0.498986280867 96.680604431
360 20 2 77.9716823105 0.578591196487 97.0538406154
361 21 1 75.9365108332 5.74617597909 90.5032267621
362 21 1 74.9845081408 0.567410403127 92.1741753083
363 21 2 75.6809305614 6.13823606612 90.8004626967
364 21 2 75.0131598634 6.73757577927 91.3184629036
365 21 2 74.1537943764 7.1101020545 91.7613682492
366 21 2 73.1825605175 7.21478368454 92.1066167958
367 21 2 72.1893812071 7.03500278561 92.3405477618
368 21 2 71.2661796346 6.58006947315 92.4596466657
369 21 2 70.4985007057 5.88437326969 92.4708656614
370 21 2 69.957713853 5.00424859174 92.3909898681
371 21 2 69.6945079025 4.01284001837 92.2451074516
372 21 2 69.734270923 2.99343535825 92.064322905
373 21 2 70.0747761714 2.03187418854 91.8829219572
374 21 2 70.6863850543 1.20872380684 91.7352465205
375 21 2 71.5147486067 0.591935737385 91.6525645169
376 21 2 72.4857612545 0.23065213119 91.6602198907
377 21 2 73.5123153403 0.150726590351 91.7753225759
378 21 2 74.5022407526 0.352367681312 92.0051889711
379 22 1 99.50323918 13.1601333902 29.027366795
380 22 1 94.0920674595 12.3724937064 29.812755489
381 22 2 99.7775731809 12.7194886684 28.8325472036
382 22 2 100.182679658 11.7844334019 28.645436535
383 22 2 100.405170595 10.7736120759 28.6922130318
384 22 2 100.412024421 9.7717760345 28.9562728402
385 22 2 100.189874307 8.86285763713 29.401207313
386 22 2 99.7462265247 8.1223200483 29.9741215611
387 22 2 99.1087762635 7.61027897187 30.6104556806
388 22 2 98.3228832922 7.36602326532 31.239869216
389 22 2 97.4474375355 7.40443386538 31.7926525047
390 22 2 96.5494914154 7.71462743045 32.2060805259
391 22 2 95.6981482016 8.26094832806 32.4301301194
392 22 2 94.9582634336 8.98621855052 32.4320394621
393 22 2 94.3845335113 9.81694933743 32.1992942213
394 22 2 94.0165102646 10.6700394798 31.7407682024
395 22 2 93.8749959099 11.4603497733 31.0859145252
396 22 2 93.9601469832 12.1084632288 30.2820810507
397 23 1 23.2810136243 90.0847355401 78.2384211606
398 23 1 21.2505848835 87.1590070046 74.0152158936
399 23 2 22.98469773 90.5326314009 78.3761447125
400 23 2 22.4442982182 91.4161924215 78.4033164178
401 23 2 21.949396178 92.2838048606 78.12805175
402 23 2 21.5271195989 93.0500472859 77.5730697254
403 23 2 21.1979768535 93.6387378709 76.7865848498
404 23 2 20.9739874146 93.9898781648 75.8379124952
405 23 2 20.857586312 94.0651217912 74.8111509887
406 23 2 20.8414021863 93.8512696171 73.797516275
407 23 2 20.9089291685 93.3614728193 72.8870278266
408 23 2 21.0360313459 92.6340341895 72.1603036096
409 23 2 21.1931426858 91.7289169371 71.6812119717
410 23 2 21.3479619008 90.7222792032 71.4910502128
411 23 2 21.4683966244 89.6995324494 71.6047804466
412 23 2 21.5254885445 88.7475564313 72.0096658437
413 23 2 21.4960528766 87.9467803413 72.6664315602
414 23 2 21.3647915942 87.3638519023 73.5128445338
415 24 1 26.8399042249 26.4138251023 2.86256393706
416 24 1 30.8671039765 28.3182425534 6.12949635039
417 24 2 26.5184544031 26.0241228317 3.09100154454
418 24 2 26.123597383 25.1949353821 3.5705702239
419 24 2 26.0258861251 24.3068384357 4.09515228146
420 24 2 26.2327331821 23.4470705803 4.63502591564
421 24 2 26.7237914308 22.7002882824 5.15907553851
422 24 2 27.452808657 22.1408496773 5.63762787848
423 24 2 28.3518433221 21.8260370231 6.04515661969
424 24 2 29.3374572522 21.7908355765 6.36260905749
425 24 2 30.3183208046 22.04474478 6.57914270153
426 24 2 31.2035373213 22.5709124128 6.69311353976
427 24 2 31.9109281155 23.3276706263 6.71222588577
428 24 2 32.37452284 24.2523338565 6.65283015119
429 24 2 32.5505725077 25.2669124461 6.53843254933
430 24 2 32.4215370947 26.2852211929 6.39755256673
431 24 2 31.9976842671 27.2207349011 6.26112348814
432 24 2 31.3161535101 27.9944749212 6.1596729103
433 25 1 9.00524529844 51.1060984592 64.8098344845
434 25 1 10.9363830205 55.9682641947 63.0355620926
435 25 2 8.59260950399 50.8938639669 64.5064044111
436 25 2 7.72726301278 50.7110407066 63.9667738737
437 25 2 6.81386139072 50.8238736719 63.4909417501
438 25 2 5.9410885448 51.2268048862 63.1044653508
439 25 2 5.19392517767 51.8878346927 62.8247574514
440 25 2 4.64590302369 52.7514384376 62.6594991638
441 25 2 4.35240262791 53.7436273944 62.6059398236
442 25 2 4.3456055574 54.7786926379 62.6511477062
443 25 2 4.63156113742 55.7670171842 62.7731887184
444 25 2 5.1896350716 56.6232443388 62.9431256326
445 25 2 5.97439020288 57.2740577317 63.1276556379
446 25 2 6.91972798895 57.6648639078 63.2921458019
447 25 2 7.94491320775 57.7647683753 63.4037897704
448 25 2 8.96193275709 57.5693915555 63.4345979787
449 25 2 9.88351781377 57.1012679697 63.3639488253
450 25 2 10.6310981535 56.407792278 63.1804682763
451 26 1 19.096823654 49.6485148321 92.5041439335
452 26 1 23.5925951926 47.2922681069 94.684540848
453 26 2 19.1000266501 49.6907357984 91.9513431386
454 26 2 19.3184568442 49.8643056118 90.9535396603
455 26 2 19.8015901749 50.1326346656 90.0771654737
456 26 2 20.5136710675 50.4547039022 89.3969726919
457 26 2 21.3980759893 50.7845959898 88.9698320173
458 26 2 22.3824745329 51.0756805649 88.829549129
459 26 2 23.3854221393 51.2848644649 88.9837833855
460 26 2 24.3237835523 51.3765195548 89.4133496951
461 26 2 25.1203103744 51.3257301366 90.0739671849
462 26 2 25.710682052 51.1205639484 90.9002952848
463 26 2 26.0493685221 50.7631597583 91.8118893453
464 26 2 26.1137801553 50.2695324216 92.7205329526
465 26 2 25.9063267409 49.6681131689 93.5382786187
466 26 2 25.4541978404 48.9971581761 94.1854639602
467 26 2 24.8068845321 48.3012616161 94.5979727113
468 26 2 24.0316684311 47.6272910186 94.73307875
469 27 1 52.1669705673 66.4359578416 49.328927746
470 27 1 47.1355727696 64.3708161756 50.2975438523
471 27 2 52.1749598324 66.8968810138 49.0209219198
472 27 2 52.053111736 67.6322221054 48.3012855313
473 27 2 51.750756776 68.1531235477 47.4582593296
474 27 2 51.2799535879 68.4214113115 46.5751873931
475 27 2 50.6681144129 68.4219364293 45.739063862
476 27 2 49.9555065455 68.163955783 45.0326036545
477 27 2 49.1915820773 67.680288364 44.5267032239
478 27 2 48.4304704706 67.0243239097 44.2739785355
479 27 2 47.7260448032 66.2651565721 44.3039692625
480 27 2 47.1270113809 65.4812871697 44.6204463236
481 27 2 46.6724702881 64.7534680486 45.201068174
482 27 2 46.3883515195 64.1573427214 45.999417177
483 27 2 46.2850515305 63.7565511633 46.9492304484
484 27 2 46.3564856279 63.5969291987 47.9704395403
485 27 2 46.5806425738 63.702330688 48.9764684667
486 27 2 46.9215908506 64.0724533121 49.8821248733
487 28 1 34.4671343438 94.5079599449 36.7383365524
488 28 1 34.0593232899 93.4536167285 42.1457427316
489 28 2 34.197015653 94.9610505403 36.5676719889
490 28 2 33.5122452975 95.7119837263 36.3660810129
491 28 2 32.6518043547 96.2887403743 36.3450295486
492 28 2 31.6971587254 96.6508400363 36.5210567295
493 28 2 30.7383608158 96.7773676749 36.8927384972
494 28 2 29.8658415015 96.668880013 37.4408174006
495 28 2 29.1621675944 96.34735479 38.1299578614
496 28 2 28.6945160993 95.8541875496 38.9119669172
497 28 2 28.5085512085 95.2464185466 39.7301868813
498 28 2 28.6242621336 94.5915336802 40.5246595396
499 28 2 29.0341411417 93.9613133347 41.2375911815
500 28 2 29.7038678653 93.425289789 41.8186203419
501 28 2 30.5754375123 93.0444095356 42.2294081147
502 28 2 31.5724478475 92.8654781707 42.4471326409
503 28 2 32.6070630523 92.9168941889 42.4665692607
504 28 2 33.5880197248 93.2060605365 42.3005667267
505 29 1 12.7994747046 7.39417348473 0.550212153366
506 29 1 9.92023411148 4.04987056573 3.87340379006
507 29 2 12.7623524508 7.93363329468 0.672632085464
508 29 2 12.4617527114 8.89849736593 0.900945755299
509 29 2 11.8856775231 9.72957797589 1.12653921348
510 29 2 11.0866166914 10.350770631 1.34806005572
511 29 2 10.1373845669 10.7051015639 1.5645270858
512 29 2 9.12448321252 10.7599207398 1.77541974898
513 29 2 8.14021797103 10.5098778202 1.98072557915
514 29 2 7.27428408016 9.97740983154 2.18094133511
515 29 2 6.6055911913 9.21069609075 2.37702772229
516 29 2 6.19507096567 8.27926678877 2.57032182709
517 29 2 6.08012331628 7.26766549978 2.76241524495
518 29 2 6.2712075058 6.26774326027 2.95500901074
519 29 2 6.75088881275 5.37028659258 3.14975855393
520 29 2 7.47542765973 4.65674255608 3.34812281067
521 29 2 8.37876635904 4.19179506532 3.55123124562
522 29 2 9.37855009431 4.01746912417 3.75978090425
523 30 1 87.8415520122 3.70173669472 44.2940082873
524 30 1 87.4072586697 1.11748577475 39.4307760764
525 30 2 87.4247282651 4.04744154822 44.412868315
526 30 2 86.6899443875 4.77784788767 44.4198856997
527 30 2 86.0585906618 5.55083789797 44.1418049054
528 30 2 85.5730843319 6.28634730017 43.5970485065
529 30 2 85.2625490417 6.90772807259 42.8283458459
530 30 2 85.1401602922 7.34873471308 41.8988383698
531 30 2 85.2019445303 7.55956233954 40.8863244533
532 30 2 85.4271413271 7.51138627178 39.876168287
533 30 2 85.780095636 7.19898932408 38.9535191586
534 30 2 86.2135076545 6.64123733773 38.1955503234
535 30 2 86.6727440749 5.87935961001 37.664424868
536 30 2 87.1008177643 4.97319095395 37.4016297112
537 30 2 87.4435819894 3.99571791505 37.4241941824
538 30 2 87.6546657467 3.02642624271 37.7231378435
539 30 2 87.6997003553 2.14405597665 38.264289032
540 30 2 87.5594520704 1.41942450271 38.9913995165
541 31 1 62.2316716343 31.0433339532 20.2616130009
542 31 1 61.3297433357 25.5943651925 20.376747058
543 31 2 62.3812536071 31.2656473166 20.7469825404
544 31 2 62.4723597041 31.5655381585 21.7345123745
545 31 2 62.3216425257 31.680101338 22.7531436234
546 31 2 61.9542486986 31.5852162729 23.7172331479
547 31 2 61.4150743468 31.2758530285 24.5461091414
548 31 2 60.7646729302 30.7665307831 25.1714241492
549 31 2 60.0737359583 30.0899944435 25.5433847561
550 31 2 59.416649648 29.294230034 25.6352901238
551 31 2 58.8647148191 28.438090899 25.4459657002
552 31 2 58.4796480146 27.5859333778 24.9998702772
553 31 2 58.3079562034 26.8017508962 24.344866637
554 31 2 58.3766977938 26.1433411368 23.5478589874
555 31 2 58.6910163324 25.6570379347 22.688694822
556 31 2 59.2336716831 25.3734880723 21.8528870349
557 31 2 59.9666114199 25.304857907 21.1238196485
558 31 2 60.8344392035 25.4437244405 20.5751475833
559 32 1 54.2996393959 91.4701396647 20.3705844075
560 32 1 52.6480646774 88.9183647975 24.9834725524
561 32 2 54.8458992233 91.4535880743 20.277268632
562 32 2 55.8798822782 91.4987997671 20.3250698463
563 32 2 56.8516502794 91.6240652964 20.661856886
564 32 2 57.6770509017 91.8002148752 21.2628020997
565 32 2 58.2852728152 91.9934407712 22.0790005242
566 32 2 58.6252999488 92.1683787917 23.0419274418
567 32 2 58.670561469 92.2913316348 24.0696842245
568 32 2 58.4213536398 92.3333403085 25.0744631755
569 32 2 57.9048128197 92.2728236657 25.970550966
570 32 2 57.1724420545 92.0975454678 26.6821411759
571 32 2 56.2954167128 91.8057296851 27.1502438464
572 32 2 55.3580970412 91.4062223774 27.3380622573
573 32 2 54.4503389533 90.9176853991 27.2343468494
574 32 2 53.6593039032 90.3668954212 26.854420592
575 32 2 53.0615143525 89.7863033092 26.2387823348
576 32 2 52.7158789515 89.2110763135 25.4494154467
577 33 1 67.9353236172 9.60013832426 21.9369451948
578 33 1 64.4671265631 5.47302843178 23.1438272068
579 33 2 67.8600425799 10.0626945298 22.2331817729
580 33 2 67.4949890576 10.9005068784 22.721296929
581 33 2 66.8649376354 11.630616544 23.1000119839
582 33 2 66.0230549324 12.1793571331 23.3521375307
583 33 2 65.0418154227 12.4895935592 23.4720224576
584 33 2 64.0063955808 12.5259297523 23.4660690319
585 33 2 63.0069102738 12.2779349168 23.3521493504
586 33 2 62.1301990318 11.7610942706 23.1579763455
587 33 2 61.4519108573 11.0153976082 22.9185778257
588 33 2 61.0296090203 10.1016943388 22.6731037841
589 33 2 60.8975243204 9.0961472245 22.4612579815
590 33 2 61.0634350408 8.0832903484 22.3196790546
591 33 2 61.5079579788 7.14832405893 22.278601002
592 33 2 62.1863151724 6.36934918571 22.3590974365
593 33 2 63.0324152924 5.81024835769 22.5711607811
594 33 2 63.9648776903 5.51486327227 22.9127914868