LAMMPS input file for bananas

4320 atoms

2 atom types

0 80.0 xlo xhi
0 80.0 ylo yhi
0 80.0 zlo zhi

Masses

 1 1
 2 1

Atoms

1 1 1 68.759246258 60.2910623673 34.5974567232
2 1 1 73.9081915509 58.6892634309 33.3972094159
3 1 2 68.5612088973 60.0995568983 35.0785891864
4 1 2 68.2642635696 59.5341814485 35.8944470688
5 1 2 68.0990221969 58.7461106602 36.5464361274
6 1 2 68.0960913204 57.8080873463 36.9863834923
7 1 2 68.2712833133 56.8065220919 37.1854433271
8 1 2 68.6241751253 55.8336171597 37.13672605
9 1 2 69.1381468428 54.978962501 36.8559263008
10 1 2 69.781896549 54.3213698705 36.3798924161
11 1 2 70.5122934105 53.9216893459 35.7632678025
12 1 2 71.2783089372 53.8172630058 35.0735103353
13 1 2 72.0256680929 54.0185212987 34.3847437544
14 1 2 72.7017963199 54.5080323363 33.7710014827
15 1 2 73.2606115689 55.2420907627 33.2994786781
16 1 2 73.6667245553 56.1547013813 33.024407574
17 1 2 73.8986643976 57.1635944403 32.9821143566
18 1 2 73.9508356306 58.1777243009 33.1877081295
19 2 1 35.7215085676 26.144123945 62.1783085232
20 2 1 40.0839108463 24.8965184723 59.0269726154
21 2 2 35.2605888715 26.2733183366 61.8985882504
22 2 2 34.5426644887 26.6607735267 61.2599075263
23 2 2 34.068833299 27.1959067721 60.5098632446
24 2 2 33.8830512448 27.8175906988 59.7021231039
25 2 2 34.0030193594 28.4568090693 58.8956136263
26 2 2 34.4185703655 29.0429474286 58.1491491621
27 2 2 35.0925953953 29.5102294228 57.5160711192
28 2 2 35.9644263644 29.8037121378 57.0393860362
29 2 2 36.955365706 29.8842939997 56.7478456514
30 2 2 37.9758594434 29.7322787779 56.6533262588
31 2 2 38.9336597955 29.3491708445 56.7497462154
32 2 2 39.742233316 28.7575380547 57.013620267
33 2 2 40.3286481853 27.9989547467 57.4062001661
34 2 2 40.6402217511 27.1302123526 57.8770064713
35 2 2 40.6493224114 26.2181430106 58.3684296132
36 2 2 40.3558881609 25.3335279943 58.8209808531
37 3 1 22.6189193041 64.5018719979 7.72291064373
38 3 1 24.4275635944 59.6017172253 9.52159908173
39 3 2 22.659700505 64.5793064101 7.17544156377
40 3 2 22.9576870977 64.6531060648 6.18589236706
41 3 2 23.5153035191 64.614424828 5.31352908283
42 3 2 24.2772239743 64.4493709683 4.63111831612
43 3 2 25.1695009016 64.1555712806 4.19411300766
44 3 2 26.1063050956 63.7423873985 4.03559804661
45 3 2 26.9977488092 63.2300625053 4.1632746713
46 3 2 27.7580787821 62.647876223 4.55875852191
47 3 2 28.313492421 62.031475852 5.1792553258
48 3 2 28.6088647085 61.4196272157 5.96146148102
49 3 2 28.6127727017 60.8506812592 6.82733401048
50 3 2 28.3203596489 60.3590784626 7.69120397067
51 3 2 27.7537776699 59.972209684 8.46758494695
52 3 2 26.960168649 59.7079195556 9.07896491171
53 3 2 26.0073673791 59.5728799933 9.46287123851
54 3 2 24.9777186006 59.5619820692 9.57756491506
55 4 1 22.7191116463 12.9162923528 1.9869001116
56 4 1 18.0239430101 11.2930713244 4.40320639012
57 4 2 22.9044443914 13.4136550404 2.14709910879
58 4 2 23.0305839503 14.4107447586 2.39879518887
59 4 2 22.8577926438 15.4153181224 2.58433637648
60 4 2 22.3976650282 16.3356633003 2.70556897136
61 4 2 21.6879855961 17.0877456347 2.77020082962
62 4 2 20.7892848213 17.6028671766 2.79109881321
63 4 2 19.7793219679 17.8339283197 2.78511600988
64 4 2 18.7459975408 17.7597208042 2.77155561925
65 4 2 17.7793413901 17.3868607921 2.77041151778
66 4 2 16.9633067307 16.7491858226 2.80054587036
67 4 2 16.3681180311 15.9046706105 2.87796989438
68 4 2 16.0438702408 14.9301428056 3.01438448008
69 4 2 16.0159627697 13.9142803583 3.21611368568
70 4 2 16.2827843994 12.9495287611 3.48352831635
71 4 2 16.815860142 12.123674889 3.81101212633
72 4 2 17.5624466586 11.5118454607 4.18747372474
73 5 1 50.5421304823 20.4227839565 44.8567380646
74 5 1 52.5690848077 17.0564619547 48.7396909878
75 5 2 50.405351243 20.9295723033 45.035171804
76 5 2 50.0330825288 21.7575079409 45.5345600253
77 5 2 49.5514072173 22.3677117936 46.2194615975
78 5 2 49.0182989026 22.7082031651 47.040016996
79 5 2 48.4964191596 22.7515849306 47.9340022125
80 5 2 48.0474061088 22.4975407119 48.8325003073
81 5 2 47.7262562665 21.9728637144 49.6661830036
82 5 2 47.5763117592 21.2290145976 50.3716297752
83 5 2 47.6253098049 20.3374309744 50.8971084574
84 5 2 47.8828545395 19.3830160627 51.2072904961
85 5 2 48.3395416256 18.4563999845 51.2864710506
86 5 2 48.9678154328 17.6456790725 51.1400004483
87 5 2 49.7244806595 17.0283861248 50.7937965163
88 5 2 50.5546394696 16.6644234974 50.2919822409
89 5 2 51.3966952832 16.5906031647 49.6928640752
90 5 2 52.1879671402 16.8172914067 49.0636174619
91 6 1 25.5873343898 48.1049837484 23.3960517897
92 6 1 26.985396329 47.0085566443 18.165252474
93 6 2 25.5007559364 48.6412017881 23.507209216
94 6 2 25.5477987373 49.6710621152 23.6102853657
95 6 2 25.8542454655 50.6592885779 23.5559818443
96 6 2 26.3833923179 51.5217445447 23.3332189095
97 6 2 27.0782369704 52.1857570287 22.9462714438
98 6 2 27.8666741872 52.5967406361 22.4143793112
99 6 2 28.6680680206 52.7231728788 21.7699936946
100 6 2 29.4006015618 52.5594673653 21.0558192571
101 6 2 29.9887343335 52.1264829849 20.3209217266
102 6 2 30.3700876027 51.4696226759 19.6162556854
103 6 2 30.5011300355 50.6546950692 18.9900201962
104 6 2 30.3611454614 49.7619162074 18.4832655869
105 6 2 29.9541210975 48.8785980669 18.1261518221
106 6 2 29.3083841238 48.0911903047 17.9351995036
107 6 2 28.4740197367 47.477400603 17.9117840616
108 6 2 27.5183060174 47.099111822 18.0420103875
109 7 1 15.4836158964 29.3103583406 34.539361542
110 7 1 20.5602650065 27.1505522569 34.8237249635
111 7 2 15.0778621495 28.9776702498 34.7184261091
112 7 2 14.4205709613 28.1997863419 34.908990877
113 7 2 13.9538754503 27.2747762832 34.9102957164
114 7 2 13.7286465288 26.2783910224 34.7372686779
115 7 2 13.7737460747 25.2928871668 34.4207276967
116 7 2 14.0933962486 24.3995295129 34.0045716206
117 7 2 14.6667946552 23.6711839771 33.5417789467
118 7 2 15.450010426 23.1656760623 33.0895789736
119 7 2 16.3799884005 22.9205202179 32.7042355034
120 7 2 17.3802964357 22.9495004979 32.4359185467
121 7 2 18.3680919915 23.2414141812 32.3241314601
122 7 2 19.2616730067 23.7610928698 32.3941103211
123 7 2 19.987924824 24.4526079942 32.6545237267
124 7 2 20.4889843948 25.2443685532 33.0966826743
125 7 2 20.7275143424 26.055646442 33.6953325407
126 7 2 20.6901061631 26.8039346033 34.4109549739
127 8 1 39.0745593023 78.3814016295 74.0925354687
128 8 1 38.0617025197 75.6335961458 78.7767298736
129 8 2 38.628218246 78.6060067149 73.8522984917
130 8 2 37.7043369826 78.8099500665 73.4300420155
131 8 2 36.7298325125 78.723006662 73.0891140271
132 8 2 35.7835017486 78.3591093536 72.875837574
133 8 2 34.941573646 77.7574346021 72.8249006072
134 8 2 34.270761136 76.9788316465 72.9561942676
135 8 2 33.8221804214 76.1002762588 73.2729998614
136 8 2 33.6266918705 75.2078546078 73.7616897779
137 8 2 33.6920871773 74.3889167355 74.3929696099
138 8 2 34.0023791698 73.7241148336 75.1245482604
139 8 2 34.5192589972 73.2800520122 75.9049926632
140 8 2 35.1855878801 73.1032116042 76.6784157694
141 8 2 35.9306051569 73.2157203336 77.3895705024
142 8 2 36.6763779292 73.6133315241 77.9888853816
143 8 2 37.3449044374 74.2658121719 78.43698283
144 8 2 37.8652237123 75.1196986034 78.7082683352
145 9 1 47.4354104171 51.6348734053 22.223983119
146 9 1 42.6095456306 49.485551133 23.8393573462
147 9 2 47.3975493331 52.1184473256 21.9554605129
148 9 2 47.1671032581 52.9073373182 21.3245903223
149 9 2 46.7363260186 53.4915362741 20.5852713377
150 9 2 46.1303437599 53.8265188765 19.8145430007
151 9 2 45.3902520967 53.8904752132 19.0923076317
152 9 2 44.5693703575 53.6862986919 18.4940475465
153 9 2 43.7283816703 53.2413223133 18.0839450451
154 9 2 42.9298018575 52.6048273418 17.9090323669
155 9 2 42.2322812861 51.8435514494 17.9949048273
156 9 2 41.6852590433 51.0356057559 18.3433878733
157 9 2 41.324456696 50.2633552083 18.9323706991
158 9 2 41.1686223652 49.6059112367 19.7178215866
159 9 2 41.2178218851 49.1319209586 20.6378012792
160 9 2 41.4534328024 48.8933101777 21.618108579
161 9 2 41.8398417632 48.9205504856 22.5790435882
162 9 2 42.3276905748 49.2198818578 23.4426721413
163 10 1 26.7078362103 54.2991380786 47.7141306478
164 10 1 25.5939908933 54.3302168411 53.1248952686
165 10 2 26.6321860027 54.784613452 47.4572799209
166 10 2 26.2811103882 55.6849471163 47.0836554876
167 10 2 25.6917894332 56.5145616662 46.8890006093
168 10 2 24.9241956084 57.2102739895 46.9043007608
169 10 2 24.0545504802 57.7211058036 47.1414045773
170 10 2 23.1683773184 58.0129301906 47.5919438826
171 10 2 22.352705879 58.0715821739 48.2280964265
172 10 2 21.6881398744 57.9041498185 49.0051218077
173 10 2 21.2415101605 57.5383281724 49.8654394427
174 10 2 21.0597832828 57.0198949374 50.7438768815
175 10 2 21.1657806012 56.4085379536 51.5736101025
176 10 2 21.5560981842 55.7724148124 52.2922543433
177 10 2 22.2014170683 55.1819404745 52.8475503051
178 10 2 23.0491756027 54.7033691339 53.2021274484
179 10 2 24.0283603036 54.3927553256 53.3369102172
180 10 2 25.0559785435 54.2908447046 53.2528567254
181 11 1 5.97195755493 20.4324203572 40.2548754748
182 11 1 6.00392361631 21.9189593347 34.934427082
183 11 2 5.4904733872 20.2265411867 40.4369972786
184 11 2 4.50126285402 20.0358831089 40.6789932076
185 11 2 3.47067179379 20.103301249 40.7613756823
186 11 2 2.4868219772 20.4123530354 40.6614930368
187 11 2 1.6335748355 20.9245716357 40.3733065836
188 11 2 0.982887715196 21.5829721054 39.9079410238
189 11 2 0.588255158254 22.3172454132 39.2926704609
190 11 2 0.479833017548 23.0501669214 38.5684324383
191 11 2 0.661689831492 23.7046352054 37.7860965925
192 11 2 1.11143598763 24.2106996421 37.0018280211
193 11 2 1.78226447597 24.5119362226 36.2719679845
194 11 2 2.60721722284 24.5705904494 35.6478985506
195 11 2 3.50528814034 24.3710185585 35.1713592567
196 11 2 4.38880661476 23.921113406 34.8706426619
197 11 2 5.17142844865 23.251585056 34.7580155566
198 11 2 5.7760059037 22.41316164 34.8286008765
199 12 1 61.0384190003 19.5380154403 58.5522381717
200 12 1 58.7229465848 15.9710379634 62.0783195992
201 12 2 60.9582248817 20.0727869188 58.6745899482
202 12 2 60.5828283544 21.0070908644 58.9187284245
203 12 2 59.946458675 21.7819953677 59.1795092774
204 12 2 59.108431201 22.3267232107 59.4523307226
205 12 2 58.1464418585 22.5914771629 59.7314935083
206 12 2 57.1494853668 22.5519788656 60.0107203861
207 12 2 56.2097436073 22.2116817394 60.283728266
208 12 2 55.4141834915 21.6014562142 60.5448009031
209 12 2 54.8366301596 20.7767759721 60.7893099178
210 12 2 54.5310380158 19.8126616694 61.0141366605
211 12 2 54.5265729292 18.7968430044 61.217956468
212 12 2 54.8249538424 17.8217623897 61.4013594033
213 12 2 55.4002960944 16.9761490736 61.5667964725
214 12 2 56.2014707386 16.3369317062 61.7183562225
215 12 2 57.1567648093 15.9622264984 61.8613920808
216 12 2 58.1804177673 15.8860400848 62.0020344047
217 13 1 7.66263122117 54.3415638815 -0.292023472801
218 13 1 11.751358523 50.9528907226 1.23020986525
219 13 2 7.29432035799 54.4567800367 0.10603925302
220 13 2 6.60062583374 54.4382973087 0.875387228236
221 13 2 5.96512293564 54.1195490499 1.62903543872
222 13 2 5.45703072512 53.5309677659 2.31377216836
223 13 2 5.13395512001 52.7275805214 2.88266679834
224 13 2 5.03663826904 51.7839933704 3.2993474076
225 13 2 5.18524501391 50.7875912135 3.54131597625
226 13 2 5.57752491785 49.8305728979 3.60199901993
227 13 2 6.18901738692 49.0015475391 3.49134674535
228 13 2 6.97528118778 48.3774580365 3.23492611554
229 13 2 7.87594514732 48.0165679341 2.87159048949
230 13 2 8.82021082371 47.9531508539 2.44993824237
231 13 2 9.7333055952 48.1943665471 2.02388315347
232 13 2 10.5432979847 48.7196083019 1.64774030934
233 13 2 11.1876540216 49.4823811899 1.37127542883
234 13 2 11.6189370463 50.414539955 1.23516885083
235 14 1 5.88322575189 54.6305965936 49.6421494163
236 14 1 0.740155798535 56.1897660359 50.9211385353
237 14 2 6.26651917347 55.0283576867 49.6896241874
238 14 2 6.831030016 55.8961733417 49.648715647
239 14 2 7.14859348042 56.8634520862 49.4564260534
240 14 2 7.18433843028 57.8512934337 49.1460363278
241 14 2 6.92908073353 58.7789226719 48.7615919027
242 14 2 6.40016037155 59.5710532609 48.3538880987
243 14 2 5.63986094621 60.1647490007 47.9758402664
244 14 2 4.71155564262 60.5151604975 47.6776606939
245 14 2 3.69393093262 60.5996130659 47.5022818912
246 14 2 2.67381451324 60.4196734661 47.4814434058
247 14 2 1.73826119413 60.0010070975 47.6327988487
248 14 2 0.966618084386 59.3910386668 47.9583068146
249 14 2 0.423292315621 58.654629552 48.444052361
250 14 2 0.151880504043 57.8681658617 49.0615153183
251 14 2 0.171195035428 57.1125960454 49.770169827
252 14 2 0.473549366437 56.4660526581 50.5211781613
253 15 1 49.7199096934 17.400319586 27.8748540736
254 15 1 54.3887443234 16.8418825199 24.9751778327
255 15 2 49.6014330626 16.9755716395 28.2109107026
256 15 2 49.4178472769 16.0531987735 28.6456227527
257 15 2 49.3126894413 15.0341791237 28.8005123719
258 15 2 49.3129686648 14.0066143463 28.6679961033
259 15 2 49.4360837503 13.0593849629 28.2666867685
260 15 2 49.6882373401 12.2740491389 27.6396969585
261 15 2 50.0638705619 11.7174088741 26.8507094368
262 15 2 50.5461697048 11.4354211795 25.9781726249
263 15 2 51.1085987444 11.4490092186 25.1081502391
264 15 2 51.7173180302 11.7521552165 24.3264768123
265 15 2 52.3342686798 12.3124489644 23.710934106
266 15 2 52.9206415436 13.0740419233 23.3241615106
267 15 2 53.4404145559 13.9627376693 23.2079466322
268 15 2 53.863636049 14.8927546991 23.3794164643
269 15 2 54.1691547685 15.7745451846 23.8294763079
270 15 2 54.3465477529 16.5229570188 24.5236387289
271 16 1 33.7993364919 55.1504403589 21.6705727795
272 16 1 37.5340970493 58.5859212456 19.4872208342
273 16 2 33.2776671854 55.3380720023 21.6644826929
274 16 2 32.399074117 55.880601464 21.7492530564
275 16 2 31.7151266975 56.6357448518 21.9374667706
276 16 2 31.2874340636 57.5436093692 22.1949760719
277 16 2 31.1542484135 58.5303820967 22.4813170888
278 16 2 31.3269784209 59.5150578426 22.7533980164
279 16 2 31.7891493649 60.4168225494 22.9694268185
280 16 2 32.4979047569 61.1624192791 23.0927204605
281 16 2 33.387912595 61.6928253874 23.0950484698
282 16 2 34.377320201 61.9686322803 22.9592060677
283 16 2 35.3752148738 61.9736374015 22.6805823395
284 16 2 36.2899103387 61.7163210524 22.2675805065
285 16 2 37.0373037067 61.2290734355 21.7408519953
286 16 2 37.5485412273 60.5652423735 21.131414115
287 16 2 37.7762941247 59.7942707985 20.4778229129
288 16 2 37.6990724886 58.9953672138 19.8226588934
289 17 1 50.6402338219 54.6989654588 63.1373833206
290 17 1 46.6108934218 52.6346114672 66.3029558753
291 17 2 50.6803467654 55.251917915 63.1413984209
292 17 2 50.5245314384 56.2755383721 63.1043477159
293 17 2 50.0790406967 57.2078304134 63.0280616754
294 17 2 49.3807111641 57.9678669426 62.937893225
295 17 2 48.4894250444 58.4904214928 62.8604606347
296 17 2 47.4826520185 58.7319134449 62.8212213348
297 17 2 46.4483880904 58.6743802843 62.8421515396
298 17 2 45.4771349859 58.3271148364 62.9397431736
299 17 2 44.6536511632 57.72581825 63.1235006769
300 17 2 44.0492263049 56.9293459333 63.395074701
301 17 2 43.7151834549 56.0143430406 63.7481116564
302 17 2 43.6782010594 55.0682584714 64.1688328248
303 17 2 43.9378812984 54.181374137 64.6372902531
304 17 2 44.4667863454 53.4385760056 65.1291849555
305 17 2 45.2129392525 52.9116169728 65.6180817014
306 17 2 46.1045615099 52.6525767776 66.0778185159
307 18 1 19.5866423928 43.5357871085 61.1146304133
308 18 1 16.4169908041 47.6575501829 62.9807410816
309 18 2 19.6717504907 43.5361997502 60.5667818672
310 18 2 19.5966302859 43.5573708844 59.5336513096
311 18 2 19.2256086646 43.6191120358 58.5682596802
312 18 2 18.5942400256 43.7345765109 57.7549383367
313 18 2 17.7618087025 43.912020879 57.1641578363
314 18 2 16.805925355 44.1540524079 56.8461047334
315 18 2 15.8154529651 44.457391418 56.826107209
316 18 2 14.8824072135 44.8131702171 57.1023264747
317 18 2 14.0935694962 45.2077413659 57.6459243734
318 18 2 13.5225770324 45.6239216065 58.4036919003
319 18 2 13.2232110288 46.0425580698 59.3028990614
320 18 2 13.2244946659 46.4442740086 60.2579240181
321 18 2 13.5280477134 46.8112349365 61.1780572888
322 18 2 14.1079388919 47.1287741932 61.9757696761
323 18 2 14.9130494401 47.3867297717 62.5746903185
324 18 2 15.871732453 47.5803705581 62.916567691
325 19 1 30.8838277362 31.0054559962 57.3312874777
326 19 1 34.6818153343 30.5693719352 61.3191580821
327 19 2 30.443726471 30.6735220206 57.3905521409
328 19 2 29.7846245548 29.8864427508 57.5303409041
329 19 2 29.3877256765 28.9469123183 57.7125601619
330 19 2 29.286445482 27.9411081594 57.9396071335
331 19 2 29.4872547645 26.9612483836 58.2097931121
332 19 2 29.9690896684 26.0971863391 58.5174973853
333 19 2 30.6852716042 25.4282207205 58.8536795489
334 19 2 31.5677618767 25.0158677045 59.2067035147
335 19 2 32.5333632301 24.8982539151 59.5633981094
336 19 2 33.491303056 25.0866412834 59.9102575919
337 19 2 34.3515070736 25.5644005529 60.2346726649
338 19 2 35.0328093599 26.2885269919 60.5260797793
339 19 2 35.4703504064 27.1935601594 60.776923973
340 19 2 35.6214888901 28.1975504498 60.9833474861
341 19 2 35.4696883164 29.2095285801 61.1455413845
342 19 2 35.0260242756 30.1377971973 61.2677281456
343 20 1 25.6995591707 23.1136379442 59.3619144764
344 20 1 26.6288041306 17.7756338049 60.4390433795
345 20 2 25.8037662095 23.4585462883 59.7832940147
346 20 2 25.8642822438 23.9526518735 60.6919454833
347 20 2 25.7593033376 24.2055177814 61.691189334
348 20 2 25.5141275497 24.1861983281 62.6976512572
349 20 2 25.1668315102 23.8885567983 63.6272990356
350 20 2 24.7647998371 23.3318247897 64.4031018556
351 20 2 24.360406155 22.5588493049 64.9620514606
352 20 2 24.0062393794 21.6321873613 65.2609051848
353 20 2 23.7503103775 20.6284040862 65.2801274068
354 20 2 23.6316759061 19.6310940102 65.0256701693
355 20 2 23.6768786923 18.7232616492 64.528430666
356 20 2 23.8975281351 17.9797558643 63.8414350457
357 20 2 24.28924214 17.4604475886 63.0350052196
358 20 2 24.8320465344 17.2047727514 62.1903492078
359 20 2 25.4921956608 17.2281377987 61.3921592451
360 20 2 26.225248203 17.5205154367 60.7208923099
361 21 1 71.5981931726 30.7546380772 46.7833281625
362 21 1 68.2998350308 26.4034540129 47.6235792372
363 21 2 71.5025318337 31.1879113947 47.1157506777
364 21 2 71.1009606284 31.9672422244 47.6678684516
365 21 2 70.439547877 32.637375514 48.1001930491
366 21 2 69.5745482856 33.1285480811 48.3899778439
367 21 2 68.5807729566 33.3873085347 48.5274683321
368 21 2 67.5447705568 33.3813892267 48.5167912283
369 21 2 66.5569386376 33.102647362 48.3755783274
370 21 2 65.7032841397 32.5678071923 48.1333594133
371 21 2 65.0575840908 31.8169356451 47.828870698
372 21 2 64.6746610261 30.909790331 47.5065241194
373 21 2 64.5853860612 29.9203727964 47.2123593119
374 21 2 64.793865072 28.9301834807 46.989847217
375 21 2 65.2770644558 28.0207931694 46.8759278226
376 21 2 65.9869105816 27.2664080344 46.8976431825
377 21 2 66.8546715742 26.7271059402 47.069672605
378 21 2 67.7972220398 26.4433605069 47.3929946734
379 22 1 59.5036893082 24.6753407533 17.990815874
380 22 1 57.2722476135 19.6394610509 18.4133968096
381 22 2 59.2824929183 25.0577115129 18.3258477342
382 22 2 58.6659558868 25.6941857015 18.8627208172
383 22 2 57.832998105 26.1698212154 19.25438675
384 22 2 56.856382307 26.4310845868 19.4811311987
385 22 2 55.8219652712 26.4439817959 19.5382719821
386 22 2 54.8208722042 26.1971567346 19.4365858397
387 22 2 53.9411909221 25.7029262857 19.2013261608
388 22 2 53.2599428812 24.9961576718 18.8699212056
389 22 2 52.8360628783 24.1310904012 18.488562619
390 22 2 52.7050273013 23.1763924815 18.1079951862
391 22 2 52.8756205515 22.2089015146 17.7788915807
392 22 2 53.3291343687 21.3066211544 17.5472336857
393 22 2 54.0210730394 20.5416112822 17.4501214684
394 22 2 54.8852090616 19.9734199414 17.512391417
395 22 2 55.8396196052 19.6436556921 17.7443527612
396 22 2 56.7941535588 19.5721951024 18.1408478138
397 23 1 37.9152130616 36.2206231325 27.445460845
398 23 1 43.2335419204 36.4125584416 28.92753036
399 23 2 37.585238342 35.9439866951 27.7947036746
400 23 2 37.1324140638 35.2594313223 28.42698852
401 23 2 36.9343425199 34.4169040394 28.9965194255
402 23 2 37.0163803742 33.4982021112 29.4684373939
403 23 2 37.3783530673 32.5920659179 29.8167805863
404 23 2 37.9945707277 31.7860905063 30.0268506745
405 23 2 38.8161697347 31.1587415357 30.096552554
406 23 2 39.7755665067 30.7722033429 30.0365853074
407 23 2 40.792617564 30.6667110058 29.8694670116
408 23 2 41.7819243931 30.8568830238 29.6274822753
409 23 2 42.6606172927 31.3303888805 29.349739583
410 23 2 43.3559087254 32.0490729374 29.0786066615
411 23 2 43.8117277075 32.9524322184 28.8558487744
412 23 2 43.9938305289 33.9631310943 28.7188219306
413 23 2 43.8929219762 34.9940502186 28.6970679831
414 23 2 43.5255025662 35.9562272235 28.8096219688
415 24 1 64.367709738 38.4145729641 19.91322269
416 24 1 62.1786994552 37.8139281483 24.9496351878
417 24 2 64.7927438513 38.7693642196 19.884054974
418 24 2 65.4398408894 39.5763335547 19.943350224
419 24 2 65.8520494912 40.5020362908 20.1592402983
420 24 2 66.0009902482 41.4585329383 20.5285380445
421 24 2 65.882279912 42.3550772249 21.0340736114
422 24 2 65.5159309164 43.1063873757 21.6462594344
423 24 2 64.9445272967 43.6404193193 22.3257870629
424 24 2 64.2293432695 43.9049333118 23.027210021
425 24 2 63.444758251 43.8722554505 23.7030861319
426 24 2 62.6714773724 43.5418000757 24.3083017457
427 24 2 61.9891754226 42.9401231522 24.8041837279
428 24 2 61.4692347046 42.1185017641 25.1620244124
429 24 2 61.1682387286 41.1482603454 25.3656982281
430 24 2 61.1228147773 40.114269649 25.4131315025
431 24 2 61.3462954261 39.1072110037 25.3164914703
432 24 2 61.8275033149 38.2153109542 25.1010772633
433 25 1 40.9644527214 43.4970662708 16.5312776282
434 25 1 37.4948989993 39.2012853696 16.3686292973
435 25 2 40.7346937543 43.9771443794 16.686575454
436 25 2 40.1463100092 44.8206713328 16.81194235
437 25 2 39.3887873792 45.522154163 16.7251592009
438 25 2 38.5189214008 46.0118849341 16.4477660455
439 25 2 37.6037474067 46.2394563443 16.0186765152
440 25 2 36.7144304342 46.1783562169 15.4906309603
441 25 2 35.9197787219 45.8283840142 14.9253893087
442 25 2 35.2799720233 45.2156691162 14.3881018127
443 25 2 34.8410763824 44.3902891973 13.9413707783
444 25 2 34.6308453375 43.4217057802 13.6395445319
445 25 2 34.6561902602 42.3924330036 13.5237637157
446 25 2 34.9025504021 41.3905166792 13.6182114285
447 25 2 35.3352200685 40.501509151 13.9279090002
448 25 2 35.9025119492 39.8006714284 14.4382583117
449 25 2 36.5404682794 39.3461133456 15.116372374
450 25 2 37.1786904181 39.173497006 15.9140728892
451 26 1 15.3729196342 4.49209436554 22.4377001801
452 26 1 11.9795959925 0.166428618528 21.8973654977
453 26 2 15.1351871618 4.95217119674 22.6356753528
454 26 2 14.5323445498 5.77041910843 22.8369243314
455 26 2 13.7622211106 6.46313472541 22.8144527146
456 26 2 12.8829094968 6.95999528884 22.5833884865
457 26 2 11.9624545713 7.20852970457 22.1778722901
458 26 2 11.0726513 7.17890114307 21.6479455991
459 26 2 10.2825008323 6.86662658673 21.0549895711
460 26 2 9.65192123101 6.29298544494 20.4661303197
461 26 2 9.22628610089 5.50307999275 19.9481205478
462 26 2 9.03228890596 4.5617244191 19.5612552179
463 26 2 9.07550993155 3.5475371867 19.353875827
464 26 2 9.33990765624 2.5457751693 19.3579642085
465 26 2 9.7892808936 1.64056271552 19.5862274737
466 26 2 10.3705684337 0.907223939294 20.0309397923
467 26 2 11.0186854303 0.405417128232 20.6646465811
468 26 2 11.662455711 0.173697050151 21.4426669164
469 27 1 22.1946546336 13.564798126 36.8887817492
470 27 1 20.5216762358 12.2819772709 41.9950039335
471 27 2 22.4546220365 14.0524150945 36.8437458795
472 27 2 22.7529835046 15.0440497422 36.8767787581
473 27 2 22.7931941234 16.0606391875 37.072684391
474 27 2 22.5818691312 17.0099745338 37.4298316423
475 27 2 22.1485505647 17.8059769158 37.9318926335
476 27 2 21.5430145817 18.3765433582 38.5493309861
477 27 2 20.8307344972 18.6701187688 39.2420939837
478 27 2 20.0869130659 18.6603950479 39.9632632694
479 27 2 19.3896279516 18.3487090008 40.6633313294
480 27 2 18.8127151576 17.7639204918 41.2947139701
481 27 2 18.4190390716 16.9597819447 41.8160874904
482 27 2 18.2547625453 16.0100389531 42.1961552262
483 27 2 18.3451392736 15.0017085662 42.4165001584
484 27 2 18.6922119879 14.0271479181 42.4732635742
485 27 2 19.2746262665 13.1756361213 42.377496779
486 27 2 20.0495769332 12.5252367143 42.1541537992
487 28 1 66.2935023697 28.3263653816 5.46586773699
488 28 1 60.8719361917 28.1296860532 4.42378881465
489 28 2 66.4441736994 28.6961606734 5.85048596406
490 28 2 66.5960860706 29.5347081635 6.43973187996
491 28 2 66.5556898356 30.4958162969 6.82455562068
492 28 2 66.3122847988 31.4904246484 6.98253734859
493 28 2 65.8736744745 32.4264193378 6.91193326922
494 28 2 65.2654548169 33.2170289633 6.63183457349
495 28 2 64.528681218 33.7887335833 6.18042732665
496 28 2 63.7161264175 34.0879658623 5.61151191055
497 28 2 62.8874704096 34.0859935904 4.98959926255
498 28 2 62.1038607699 33.7815385474 4.38403087609
499 28 2 61.4223392186 33.2008930094 3.86265850884
500 28 2 60.8906424189 32.3955232777 3.48565967635
501 28 2 60.5428509088 31.4373786634 3.30005263236
502 28 2 60.3962827504 30.4123334998 3.33541078063
503 28 2 60.4499150352 29.4123599263 3.60116713823
504 28 2 60.6844771195 28.5271448742 4.08575454127
505 29 1 59.4289462235 14.9299022156 -0.194939541712
506 29 1 60.745635045 15.7474273105 5.10751030037
507 29 2 58.9953873125 15.2242137555 -0.376016807749
508 29 2 58.0803423231 15.6875659102 -0.522466318501
509 29 2 57.1051207238 16.0155944249 -0.400851611092
510 29 2 56.1612203339 16.1951510211 -0.0132158364013
511 29 2 55.3372841279 16.2266202389 0.614150745419
512 29 2 54.7110206658 16.123884387 1.43310705189
513 29 2 54.3421211651 15.9130582076 2.37804910921
514 29 2 54.2668188064 15.6301085874 3.37188967912
515 29 2 54.4945861751 15.317576272 4.33308455462
516 29 2 55.0072718615 15.0206983903 5.1830650965
517 29 2 55.7607549122 14.7832852117 5.85339955484
518 29 2 56.6889663382 14.6437269569 6.29203044005
519 29 2 57.7099111256 14.6314946315 6.46801942395
520 29 2 58.7331418627 14.7644538232 6.37436728569
521 29 2 59.6680027798 15.0472363011 6.02865187201
522 29 2 60.4318927796 15.4708178418 5.47142592352
523 30 1 49.0881445875 76.923016246 53.5016992842
524 30 1 50.8470562511 72.6768551638 50.4366810322
525 30 2 49.4221523415 77.0620198434 53.9218164206
526 30 2 50.0362789103 77.0918850108 54.7557268716
527 30 2 50.602733472 76.8194036651 55.5793367046
528 30 2 51.0872497573 76.2669410241 56.3097331797
529 30 2 51.4630299517 75.4823818523 56.8724997054
530 30 2 51.7131872449 74.5347658925 57.2084987124
531 30 2 51.8322850183 73.5079950782 57.2792618842
532 30 2 51.8268323782 72.4931860962 57.070496442
533 30 2 51.7146908682 71.5803653441 56.593387893
534 30 2 51.5234464372 70.8502632652 55.8835805015
535 30 2 51.2878950539 70.3669559839 54.997928409
536 30 2 51.0468711475 70.1720249385 54.0093135319
537 30 2 50.8397079527 70.2807668441 53.000002569
538 30 2 50.7026523911 70.6807994382 52.0541486121
539 30 2 50.6655612608 71.3331900902 51.2501208163
540 30 2 50.7491798693 72.1760044074 50.6533612615
541 31 1 61.8955059028 46.5369544105 35.6440190472
542 31 1 61.6833709021 45.1965693199 40.9990501033
543 31 2 61.4396743742 46.4127389404 35.3538988608
544 31 2 60.6148693441 45.9690120416 34.910894219
545 31 2 59.8795745513 45.2901948849 34.6425682108
546 31 2 59.2869176588 44.442251344 34.5860034657
547 31 2 58.8770252661 43.5065607104 34.7589811401
548 31 2 58.673365477 42.5725001887 35.1583602122
549 31 2 58.6806088447 41.729298403 35.7603637781
550 31 2 58.8842026635 41.0579024466 36.5227462529
551 31 2 59.2516974087 40.6235997705 37.3886439425
552 31 2 59.7357044243 40.4700674069 38.291758018
553 31 2 60.2782152723 40.6153909248 39.1623974762
554 31 2 60.8158890467 41.0504159778 39.9338312885
555 31 2 61.2858257277 41.7395826994 40.5483707558
556 31 2 61.6312993509 42.6241668889 40.9626276792
557 31 2 61.8069284265 43.6276325659 41.1514690783
558 31 2 61.7828123415 44.6626080202 41.1103079954
559 32 1 60.6589852104 30.745083505 29.9036903693
560 32 1 56.4023097008 28.0041588421 32.1141284841
561 32 2 60.8545728397 30.5310316696 29.4311346804
562 32 2 61.2230626409 29.9307093975 28.6713462578
563 32 2 61.5522081497 29.1142720057 28.124955161
564 32 2 61.7958405903 28.1504829849 27.833057973
565 32 2 61.9155854745 27.1215365327 27.8135548368
566 32 2 61.8843603339 26.1155657725 28.0595179058
567 32 2 61.6888432141 25.2186096547 28.5398227985
568 32 2 61.3306869357 24.5067707367 29.2019855021
569 32 2 60.8263684439 24.0392786375 29.9769461509
570 32 2 60.2056869787 23.853091417 30.7853636476
571 32 2 59.5090479546 23.9595269471 31.5448473927
572 32 2 58.7837801141 24.3432313181 32.1774669676
573 32 2 58.0798216402 24.9635783066 32.6168552834
574 32 2 57.4451684238 25.758372347 32.8142577642
575 32 2 56.921499367 26.6495174913 32.7429761962
576 32 2 56.5403774622 27.5501356457 32.4008021985
577 33 1 61.6641483675 45.2376398373 25.0772845114
578 33 1 57.8401836423 41.7387689632 26.9886158401
579 33 2 61.5809315887 45.7696027348 25.2094663235
580 33 2 61.2094030855 46.7228853226 25.3727724475
581 33 2 60.5821415057 47.5455388291 25.4296418597
582 33 2 59.7495928175 48.1611341173 25.3928297137
583 33 2 58.7809143603 48.5121148536 25.2836299868
584 33 2 57.7576713379 48.5650436136 25.1299345908
585 33 2 56.7664023687 48.3136496136 24.9636910989
586 33 2 55.8907317214 47.7794002764 24.8179908095
587 33 2 55.2037471866 47.0095445327 24.7240525631
588 33 2 54.7613383203 46.0728062074 24.7083772286
589 33 2 54.5971022597 45.0531200267 24.7903322191
590 33 2 54.7192814345 44.0419811921 24.9803862051
591 33 2 55.1100122911 43.1301058374 25.2791549221
592 33 2 55.7269535078 42.3991624953 25.6773450488
593 33 2 56.5071452934 41.9143282295 26.156601268