LAMMPS input file for bananas

4320 atoms

2 atom types

0 100.793683992 xlo xhi
0 100.793683992 ylo yhi
0 100.793683992 zlo zhi

Masses

 1 1
 2 1

Atoms

1 1 1 64.187249355 37.4412345049 71.7611556829
2 1 1 61.1626955244 33.2328595293 73.6741756125
3 1 2 64.7260530243 37.4191673806 71.8899393623
4 1 2 65.6519138669 37.3430891964 72.3486809248
5 1 2 66.4015324096 37.2121232863 73.051795412
6 1 2 66.9102088764 37.0194075868 73.9335884276
7 1 2 67.1352047176 36.7637083626 74.9120795054
8 1 2 67.0596381142 36.4495326583 75.8964744092
9 1 2 66.6940227108 36.0867174935 76.7954407846
10 1 2 66.0753093247 35.6895332446 77.5254328595
11 1 2 65.2635179782 35.2753829378 78.0183064176
12 1 2 64.3362672332 34.8632160107 78.2275299616
13 1 2 63.3816994675 34.4718011208 78.1324259349
14 1 2 62.4904469323 34.1180154329 77.7400554255
15 1 2 61.7473708646 33.8153063107 77.0845745668
16 1 2 61.2238266125 33.5724656253 76.2241212974
17 1 2 60.971159786 33.3928284 75.2355162432
18 1 2 61.0160262415 33.2739688315 74.2072607228
19 2 1 41.3824132944 83.4924010578 11.9055061922
20 2 1 39.869317067 85.0225604697 16.9934471355
21 2 2 41.8239075718 83.1577454857 11.8838258062
22 2 2 42.7460151893 82.69566249 11.9820442266
23 2 2 43.7174483522 82.4727757068 12.2650444087
24 2 2 44.6467919706 82.4981612302 12.7223473992
25 2 2 45.4464673043 82.7582657969 13.3275870099
26 2 2 46.0407145303 83.2181421304 14.0409130247
27 2 2 46.3724980488 83.8246342915 14.812623441
28 2 2 46.4087051255 84.5112227001 15.5876946738
29 2 2 46.1431640284 85.2040872174 16.3107968088
30 2 2 45.5972065655 85.8288356539 16.931336776
31 2 2 44.8177237467 86.3172844189 17.408069773
32 2 2 43.8728917942 86.6136732725 17.7128586181
33 2 2 42.8459580615 86.6797477222 17.8332383798
34 2 2 41.8276532603 86.4982458181 17.7735525214
35 2 2 40.9079215978 86.074471533 17.5545570063
36 2 2 40.1677226036 85.4358113198 17.2115284475
37 3 1 7.04419113437 33.749714166 32.7687165505
38 3 1 2.2659004183 34.977111065 30.2828714737
39 3 2 7.0555709472 33.8476477093 33.3142998247
40 3 2 6.99473849357 34.2418165912 34.2705321794
41 3 2 6.81748163423 34.8734981154 35.072410268
42 3 2 6.52224485177 35.6798618442 35.6521194972
43 3 2 6.1182261834 36.5821555238 35.9620953713
44 3 2 5.62453884452 37.4928831418 35.9793588692
45 3 2 5.06846911015 38.323779955 35.7076109205
46 3 2 4.48298924395 38.9938575843 35.1768950756
47 3 2 3.90375216448 39.4367858899 34.4408591165
48 3 2 3.36584177698 39.6069387853 33.5718652049
49 3 2 2.90057516917 39.4835529339 32.6543942645
50 3 2 2.5326481424 39.072620271 31.7773457705
51 3 2 2.27788425539 38.4063418555 31.0259348004
52 3 2 2.14179254914 37.540192829 30.4739249068
53 3 2 2.11906541251 36.5478660052 30.1769047676
54 3 2 2.1940623569 35.5145549666 30.1672214256
55 4 1 90.7907670143 96.303672979 20.9248040111
56 4 1 90.8112044198 91.0368452873 19.2580408487
57 4 2 90.2873022638 96.5289493266 20.9809769607
58 4 2 89.3135930761 96.8648471403 20.8691150473
59 4 2 88.3669856671 97.0511568464 20.4913940949
60 4 2 87.5237043586 97.0562123149 19.889479576
61 4 2 86.8505555744 96.8648682552 19.1254716072
62 4 2 86.3988386135 96.4798806686 18.2762446902
63 4 2 86.1996698559 95.9216556465 17.4264408058
64 4 2 86.261146588 95.2263894095 16.6607545239
65 4 2 86.5676089565 94.4427691185 16.0562133199
66 4 2 87.0810673221 93.6275351704 15.6751567258
67 4 2 87.7446649134 92.8403094624 15.5595542489
68 4 2 88.4878601701 92.1381610155 15.7271799632
69 4 2 89.2328564175 91.5704042858 16.1699924499
70 4 2 89.9016928251 91.1741042834 16.8548677518
71 4 2 90.4233503286 90.9706981962 17.7266185326
72 4 2 90.7402248273 90.9640414471 18.7130242559
73 5 1 87.1521480117 29.5366005526 16.4600551464
74 5 1 82.8507093211 26.7960050631 18.5824953966
75 5 2 87.0403320622 30.0530918792 16.2923784006
76 5 2 86.6535674957 30.9142554112 15.8654585576
77 5 2 86.0571681998 31.5765281697 15.33710954
78 5 2 85.2932776175 31.9854955557 14.7690718065
79 5 2 84.4193055748 32.1098310777 14.226703336
80 5 2 83.5026955288 31.9441516779 13.7730224227
81 5 2 82.6147772763 31.5095083836 13.462963727
82 5 2 81.8242654341 30.851467562 13.338371128
83 5 2 81.1909962849 30.0359576681 13.4241837659
84 5 2 80.7604738603 29.1432600417 13.7261629058
85 5 2 80.5597223699 28.2606914783 14.230366814
86 5 2 80.5948230165 27.4746455362 14.9044215096
87 5 2 80.8503597112 26.8627179948 15.7004715665
88 5 2 81.2908242085 26.4866342069 16.5595420073
89 5 2 81.8638525879 26.3866229972 17.4169137152
90 5 2 82.5049980853 26.5777499129 18.2080224083
91 6 1 72.3975943199 80.0549344444 82.6207498251
92 6 1 75.7754894001 81.9146211712 78.6648199512
93 6 2 71.9375731217 80.3552676142 82.6953291274
94 6 2 71.2290947468 81.0965000609 82.8439321674
95 6 2 70.7695642685 82.015457793 82.9773429511
96 6 2 70.5963570384 83.0331536413 83.0653453773
97 6 2 70.7207508094 84.061600721 83.0818621955
98 6 2 71.1268977984 85.0118322012 83.007331877
99 6 2 71.7732691698 85.8020103942 82.8304915963
100 6 2 72.5964402773 86.3648860413 82.5494038077
101 6 2 73.5168716513 86.6539279035 82.1716328471
102 6 2 74.4461588091 86.6475639593 81.7135554631
103 6 2 75.2950900867 86.351147637 81.1988681201
104 6 2 75.9817780439 85.796469864 80.6564271291
105 6 2 76.4391232854 85.0388614083 80.1176184718
106 6 2 76.6209303917 84.1521496277 79.6134970525
107 6 2 76.5061185077 83.2219293027 79.1719561265
108 6 2 76.1006428065 82.3377609014 78.8151849041
109 7 1 26.5506676324 92.4518297318 31.6562849943
110 7 1 24.3756150728 89.0123138457 35.3921741648
111 7 2 26.4844147467 92.9907277879 31.7684501776
112 7 2 26.1353285051 93.9365873824 32.0070679358
113 7 2 25.5243407875 94.727500128 32.2801998617
114 7 2 24.7094610875 95.2917034649 32.5820204713
115 7 2 23.7672831083 95.5780987902 32.9040893836
116 7 2 22.7860034508 95.5609089587 33.2361206391
117 7 2 21.8573827294 95.2420278008 33.5669202372
118 7 2 21.0683818373 94.6508475049 33.8854064396
119 7 2 20.4932356933 93.8415795981 34.1816198412
120 7 2 20.1866869276 92.8883137104 34.4476311431
121 7 2 20.1789962372 91.8782645027 34.678263887
122 7 2 20.4731842044 90.903822284 34.8715662758
123 7 2 21.0447559787 90.0541318812 35.0289890741
124 7 2 21.8439339167 89.4069673267 35.1552533758
125 7 2 22.800194682 89.0216429631 35.2579202881
126 7 2 23.8286972579 88.9336070996 35.3467017574
127 8 1 80.446267247 85.704411846 58.8531076972
128 8 1 76.2479320467 86.1061315013 55.2851119116
129 8 2 80.9495996973 85.7689328766 58.6297804281
130 8 2 81.8130286914 85.7292459744 58.0584964943
131 8 2 82.5044581187 85.4968016847 57.3227349769
132 8 2 82.9576580455 85.1066577763 56.4766572215
133 8 2 83.1281125207 84.6082459167 55.5844796039
134 8 2 82.9970770851 84.0608661079 54.7146203792
135 8 2 82.5732872794 83.5282816494 53.9334635407
136 8 2 81.8921624223 83.0729072843 53.2993080961
137 8 2 81.012577235 82.7501202619 52.8570542692
138 8 2 80.011495567 82.6032128496 52.6341109638
139 8 2 78.9769553475 82.6594463584 52.6378975164
140 8 2 78.0000441633 82.9275663474 52.8551674426
141 8 2 77.1665968685 83.3970054893 53.2532158191
142 8 2 76.5493719671 84.038846754 53.7828602501
143 8 2 76.2014198702 84.8084591188 54.3829237112
144 8 2 76.1512474919 85.6495655667 54.9858106715
145 9 1 17.313917601 35.7836055055 74.9806523988
146 9 1 21.0344114067 39.8149530597 75.6319233107
147 9 2 17.5256622276 35.2716992656 74.958340907
148 9 2 18.06406611 34.4100458801 74.7555486143
149 9 2 18.7560300905 33.7414782558 74.371291939
150 9 2 19.5525705018 33.3279713479 73.8536188555
151 9 2 20.3951718147 33.2082520094 73.2627378872
152 9 2 21.2211201718 33.3942691414 72.6655302606
153 9 2 21.9692195879 33.8701045831 72.1294538601
154 9 2 22.5853698011 34.5934240091 71.7163946222
155 9 2 23.0274973664 35.4993355904 71.4770257981
156 9 2 23.2693905381 36.5063047112 71.4461892216
157 9 2 23.3030884003 37.5235856309 71.6397195697
158 9 2 23.1396064832 38.4594927161 72.0530010741
159 9 2 22.8079327267 39.2297573408 72.6613882355
160 9 2 22.3523853074 39.7652087468 73.4224521959
161 9 2 21.8285731552 40.0180787729 74.2798480148
162 9 2 21.2983273479 39.9663557956 75.1684503605
163 10 1 73.5121083289 10.9141993478 11.8463166491
164 10 1 70.8312745597 7.48201698838 15.2450289957
165 10 2 73.5150594344 11.4453212395 12.0053210993
166 10 2 73.2886847633 12.4047775645 12.3241440593
167 10 2 72.7816945401 13.2429798478 12.6615279015
168 10 2 72.0422684109 13.8818864806 13.0057623061
169 10 2 71.1397719332 14.2616211197 13.3445125426
170 10 2 70.1584340909 14.3459302565 13.665943748
171 10 2 69.1896700475 14.1254876275 13.9597996427
172 10 2 68.3237488986 13.618744278 14.2183373628
173 10 2 67.6415658845 12.8702467987 14.4370332017
174 10 2 67.2072690059 11.9465770231 14.6149949338
175 10 2 67.0624121046 10.9302832714 14.7550431385
176 10 2 67.2221673422 9.91235629165 14.8634541118
177 10 2 67.6739422978 8.98393569618 14.9493877988
178 10 2 68.3785277339 8.2280028297 15.0240528893
179 10 2 69.2736714134 7.71181724141 15.0996851754
180 10 2 70.2797522245 7.4807861569 15.1884322918
181 11 1 43.3130078929 53.1554742099 45.1594411051
182 11 1 41.6816120216 50.6420159794 49.8004610679
183 11 2 43.3013811922 53.7094830395 45.1773470997
184 11 2 43.0606706788 54.7109158261 45.2897785623
185 11 2 42.5605284367 55.5909867403 45.5106471542
186 11 2 41.8524360829 56.2729245273 45.8377802837
187 11 2 41.0068293315 56.6980172373 46.2593196305
188 11 2 40.106677966 56.830963663 46.7548019999
189 11 2 39.2399233662 56.6630909499 47.2970244884
190 11 2 38.4914628856 56.2131451039 47.8545239555
191 11 2 37.935411685 55.5255823433 48.394444805
192 11 2 37.6283473336 54.6665170328 48.8855336845
193 11 2 37.6041529148 53.7176955363 49.3009881455
194 11 2 37.8709286738 52.7690452542 49.6208996144
195 11 2 38.4102537015 51.9104779811 49.8340680058
196 11 2 39.1788649517 51.2236946859 49.9390225809
197 11 2 40.1126005516 50.7747386875 49.9441560006
198 11 2 41.1322479856 50.6079759819 49.8669593578
199 12 1 92.9567345776 71.353827905 23.3354766816
200 12 1 93.3974243775 70.815190427 17.8551798622
201 12 2 92.5679819853 71.0362841934 23.5708890885
202 12 2 91.7037782388 70.533842694 23.8432022085
203 12 2 90.7318133121 70.1759001705 23.8679275442
204 12 2 89.742233738 69.9788450363 23.6326584392
205 12 2 88.8267915774 69.944401249 23.1486860357
206 12 2 88.0704814642 70.0594711768 22.4499701166
207 12 2 87.5437935714 70.2973294122 21.5900437624
208 12 2 87.2962886204 70.6200587218 20.637133954
209 12 2 87.3520805535 70.9820061006 19.6679428653
210 12 2 87.7076386129 71.3339439213 18.7606566657
211 12 2 88.3321091593 71.6275569011 17.9878190593
212 12 2 89.1701278992 71.8198459107 17.4097191202
213 12 2 90.146866192 71.8770472297 17.0688961048
214 12 2 91.1748514803 71.7777100198 16.9862621119
215 12 2 92.1619401805 71.514651511 17.1591960012
216 12 2 93.0197163235 71.0956116923 17.5617823027
217 13 1 63.8075949957 42.8401792658 98.7458611692
218 13 1 58.9700658111 40.3373118711 99.6688764744
219 13 2 63.7695558392 43.3514126414 98.5347331362
220 13 2 63.5553036534 44.2030757795 97.9849914594
221 13 2 63.159882302 44.8578835132 97.2861933498
222 13 2 62.6040678376 45.2631110036 96.5113959742
223 13 2 61.923255716 45.3887819842 95.7405836293
224 13 2 61.1642345957 45.2304010168 95.0533773871
225 13 2 60.3809216762 44.8093632395 94.5217778467
226 13 2 59.6294482896 44.1710042563 94.2036024722
227 13 2 58.9630436798 43.3804679183 94.1372156853
228 13 2 58.4271832988 42.5167686359 94.3380320512
229 13 2 58.0554438414 41.6655894261 94.7971112816
230 13 2 57.8664428186 40.911472135 95.4819731186
231 13 2 57.8621416216 40.3301116741 96.3395578231
232 13 2 58.0276667462 39.9814566315 97.3010624282
233 13 2 58.3326654728 39.9042451186 98.2882119459
234 13 2 58.7340724357 40.1124738943 99.2203939229
235 14 1 36.0373673886 7.08808885568 78.4275512529
236 14 1 35.890928347 11.191440851 82.1233663283
237 14 2 35.9465555259 7.24285061754 77.9029718112
238 14 2 35.5889474285 7.63927645177 77.0150455655
239 14 2 35.0243423742 8.15700729119 76.3174597846
240 14 2 34.3133983083 8.7657066691 75.8730572489
241 14 2 33.530111586 9.42674657967 75.7216037628
242 14 2 32.7550724021 10.0967283174 75.8761636079
243 14 2 32.0681192104 10.7314381532 76.3219087683
244 14 2 31.5410616621 11.2898772975 77.017470465
245 14 2 31.2311353475 11.7379988303 77.8987098096
246 14 2 31.1757849256 12.0518109874 78.8845638922
247 14 2 31.3892511431 12.2195639448 79.884434449
248 14 2 31.8612728286 12.2428207844 80.8064456523
249 14 2 32.5580221706 12.136315023 81.5658183463
250 14 2 33.4251880326 11.9266076917 82.0925974405
251 14 2 34.3929262677 11.6496663687 82.3380281296
252 14 2 35.382225826 11.3475868309 82.2789997631
253 15 1 68.3933308828 51.0367867567 7.5225403323
254 15 1 65.0732537214 53.4702929081 3.83836789947
255 15 2 68.1846567436 50.5813203906 7.75999997308
256 15 2 67.6086136203 49.8685400344 8.24328921878
257 15 2 66.8298991493 49.3853603342 8.72660191381
258 15 2 65.9102290591 49.1676476363 9.15117006799
259 15 2 64.9241668061 49.2270716793 9.46358009905
260 15 2 63.9523273149 49.5500419284 9.62064133783
261 15 2 63.0740291434 50.0989463166 9.59332274243
262 15 2 62.3600648081 50.8155794841 9.36939899998
263 15 2 61.8662482358 51.626448041 8.95456483132
264 15 2 61.6283274728 52.4494692936 8.37191593237
265 15 2 61.6587263466 53.2014528625 7.65984386317
266 15 2 61.9454120668 53.8056832633 6.86853675983
267 15 2 62.452991982 54.1989123179 6.05540482005
268 15 2 63.1259395253 54.3371240569 5.27984751701
269 15 2 63.8936553126 54.1995466578 4.59783949621
270 15 2 64.6769020874 53.7905457408 4.0568286361
271 16 1 98.1474123565 14.0730905565 85.3497900614
272 16 1 94.675687485 10.6455698907 87.9415499969
273 16 2 97.9878269053 14.6039595751 85.3401902253
274 16 2 97.4870353634 15.5058191277 85.2437164456
275 16 2 96.7574592983 16.2201572709 85.0679615209
276 16 2 95.8578569951 16.6839245252 84.8464087255
277 16 2 94.8624841761 16.8569102777 84.6167156871
278 16 2 93.8543257902 16.7254078725 84.417281995
279 16 2 92.9175321565 16.3034639352 84.2837491796
280 16 2 92.1297488876 15.6315980609 84.2457520829
281 16 2 91.5550396997 14.7731095612 84.3242177212
282 16 2 91.2380471761 13.8083079012 84.529457844
283 16 2 91.1999237147 12.8271927065 84.8602290452
284 16 2 91.4364035441 11.9212505377 85.3038460966
285 16 2 91.9181915365 11.175116135 85.8373381721
286 16 2 92.593633381 10.658858188 86.4295425777
287 16 2 93.3934237355 10.4215927615 87.0439451472
288 16 2 94.2369232237 10.4870064981 87.6420084111
289 17 1 87.9754392375 62.5643417201 55.0456940667
290 17 1 84.5145882963 59.1912721199 57.7220541501
291 17 2 88.1084250859 63.0277194246 55.3195141813
292 17 2 88.1239499404 63.9133490885 55.8569796114
293 17 2 87.8375419044 64.748000687 56.3999134538
294 17 2 87.2767156443 65.4491877277 56.9168860364
295 17 2 86.493998314 65.9465886555 57.3788339868
296 17 2 85.5621418453 66.1884564751 57.7617092809
297 17 2 84.567491804 66.146335351 58.0486711554
298 17 2 83.6021172222 65.8176542807 58.2316210994
299 17 2 82.7554187521 65.225961435 58.3119410111
300 17 2 82.1059800353 64.4187778052 58.300367242
301 17 2 81.7144050146 63.4632657914 58.2160120068
302 17 2 81.6177940455 62.4401075295 58.0846213566
303 17 2 81.8263622991 61.4361509302 57.9362284947
304 17 2 82.3225086758 60.5364937239 57.8024163305
305 17 2 83.0624200985 59.8167270301 57.7134387818
306 17 2 83.9800649581 59.336045429 57.6954632112
307 18 1 19.7943986783 46.6315903738 78.9301906209
308 18 1 16.7123592041 42.8474981649 81.518562676
309 18 2 19.7586755825 47.1441586845 79.1384673005
310 18 2 19.4604216334 48.0643843541 79.5095189277
311 18 2 18.8853654992 48.8590187587 79.8431603772
312 18 2 18.0849672455 49.4521181167 80.1278458144
313 18 2 17.1312262698 49.7861080274 80.3564916145
314 18 2 16.1101187488 49.8270312238 80.5271220158
315 18 2 15.11376114 49.5676426864 80.6430492052
316 18 2 14.2320140124 49.0280700077 80.712571421
317 18 2 13.5442914958 48.2539788159 80.7482165911
318 18 2 13.1123228956 47.3124104746 80.7656004452
319 18 2 12.9745262312 46.2856714422 80.7820031834
320 18 2 13.1425065361 45.2638312579 80.8147944319
321 18 2 13.5999980905 44.3365129438 80.8798500478
322 18 2 14.3043469981 43.5847241064 80.9901050776
323 18 2 15.1903989743 43.0734733094 81.1543747617
324 18 2 16.1764379859 42.8458447172 81.3765510495
325 19 1 80.9089260494 40.8669474828 51.3373086511
326 19 1 82.8044005398 40.2374893324 46.18668248
327 19 2 80.6349640386 41.3401101172 51.4291973123
328 19 2 80.3125693204 42.3220758943 51.5016877904
329 19 2 80.253511565 43.3536868263 51.4259178907
330 19 2 80.4534997481 44.3430775429 51.1923354689
331 19 2 80.8846315007 45.2022309336 50.8057725706
332 19 2 81.497936335 45.8550006721 50.2850050026
333 19 2 82.227839174 46.2440517503 49.6610409688
334 19 2 82.9981373439 46.3360864113 48.9742947553
335 19 2 83.7289462447 46.1248791507 48.2709030759
336 19 2 84.3439806175 45.6318441545 47.598519834
337 19 2 84.7775077426 44.9040834541 47.0019725971
338 19 2 84.9803388003 44.0100937008 46.5191766833
339 19 2 84.9243123011 43.0335228804 46.1776792818
340 19 2 84.60486093 42.0655460218 45.9921485999
341 19 2 84.0414278448 41.1965548375 45.9630368955
342 19 2 83.2756944848 40.5079187602 46.0765392545
343 20 1 11.1898506234 20.5315421604 66.1863675294
344 20 1 8.9206999522 15.4968260158 66.0429114898
345 20 2 10.8881192971 20.930641066 65.947495475
346 20 2 10.3152594496 21.5249739577 65.3213564967
347 20 2 9.76168065936 21.8710905026 64.5168666761
348 20 2 9.26000511809 21.9324120446 63.6124268876
349 20 2 8.83812417506 21.6983182311 62.6955481783
350 20 2 8.5166561152 21.1851150293 61.8548753696
351 20 2 8.3070668575 20.4345484815 61.1721073186
352 20 2 8.21062486717 19.5099996642 60.714550286
353 20 2 8.21828553842 18.490707673 60.5289831499
354 20 2 8.31151558608 17.4645471905 60.6373936364
355 20 2 8.46398230505 16.520018944 61.0349741972
356 20 2 8.64395372595 15.7381831005 61.6905602043
357 20 2 8.81719089933 15.1852708495 62.549470523
358 20 2 8.95006868442 14.9066476067 63.5384915511
359 20 2 9.01264059081 14.922678078 64.5725504429
360 20 2 8.98136832101 15.2268700708 65.5624692718
361 21 1 86.2769338601 5.14632867943 78.540376948
362 21 1 83.4003947494 1.90762761023 81.9688356673
363 21 2 86.2208728033 5.69042188957 78.6309381132
364 21 2 85.8863236199 6.65701920273 78.7959123211
365 21 2 85.2804360813 7.48162714991 78.9583070106
366 21 2 84.4578756166 8.08980565419 79.1225117609
367 21 2 83.4930568131 8.4268416039 79.2927511691
368 21 2 82.4733607253 8.46273580649 79.4726997892
369 21 2 81.4911703256 8.19493733483 79.6651472066
370 21 2 80.6354500431 7.6485760373 79.8717437747
371 21 2 79.9836368939 6.87417201936 80.0928501895
372 21 2 79.5945823037 5.94303087091 80.3275046135
373 21 2 79.5031879579 4.94074435238 80.5735103441
374 21 2 79.7172246064 3.95938893454 80.8276360378
375 21 2 80.2166237799 3.08913327425 81.0859102378
376 21 2 80.9553069781 2.41001958244 81.3439833622
377 21 2 81.865385601 1.98466799047 81.5975241567
378 21 2 82.8633488141 1.85256889257 81.8426144765
379 22 1 36.5378018339 46.3505435296 95.81148783
380 22 1 36.0730981947 48.680687418 100.79871863
381 22 2 37.0583553875 46.280062868 95.6341800124
382 22 2 38.0532591047 46.3751830698 95.3611072164
383 22 2 39.0045543103 46.7523454312 95.199131922
384 22 2 39.8345339587 47.3721745087 95.1792394819
385 22 2 40.4765485929 48.1731764359 95.3194647764
386 22 2 40.8810812647 49.0773439257 95.6232483822
387 22 2 41.020260872 49.9972664253 96.0791229733
388 22 2 40.8904025352 50.8440973552 96.6617585366
389 22 2 40.5123434644 51.5356522371 97.3342711354
390 22 2 39.9295437032 52.0038995893 98.0515847813
391 22 2 39.2041248617 52.2011618147 98.7645399903
392 22 2 38.4112078983 52.1044608861 99.4243745383
393 22 2 37.6320660445 51.7176127323 99.9871680072
394 22 2 36.9467169675 51.070879426 100.417845014
395 22 2 36.4266293738 50.218210877 100.693372239
396 22 2 36.128208827 49.2323274421 100.804857849
397 23 1 38.0611403286 46.4608120766 74.3174304011
398 23 1 35.9930721707 48.8501364585 78.8486790319
399 23 2 38.1513566044 46.8050628754 73.8923021861
400 23 2 38.0984143269 47.5153873902 73.139915178
401 23 2 37.7681021056 48.2687646366 72.5100210819
402 23 2 37.1969417729 49.0122411359 72.0690351632
403 23 2 36.443407823 49.6937658361 71.8661542114
404 23 2 35.5825976179 50.2669344262 71.9288723851
405 23 2 34.6993864634 50.6952189648 72.2604751922
406 23 2 33.880691452 50.9552973049 72.839740025
407 23 2 33.2075492023 51.0391788446 73.6228705442
408 23 2 32.7477295876 50.9549328495 74.5474885981
409 23 2 32.5495586933 50.7259529609 75.538319824
410 23 2 32.6375140229 50.3888249272 76.5140547061
411 23 2 33.0099934399 49.9899919115 77.3947597195
412 23 2 33.6394611973 49.581521321 78.1091630582
413 23 2 34.4749577477 49.2163590021 78.6011508692
414 23 2 35.4467445703 48.9435033678 78.8348818803
415 24 1 10.5886671725 41.3144516385 88.4747096243
416 24 1 13.3663805426 41.736948452 93.2311574519
417 24 2 10.8805646985 41.1072086 88.0513566447
418 24 2 11.5833738588 40.8827908818 87.3239324333
419 24 2 12.4424665789 40.876018091 86.7448263648
420 24 2 13.3900424344 41.0740049488 86.3755687129
421 24 2 14.3502359993 41.4452028819 86.2585626295
422 24 2 15.2460317772 41.9422755904 86.41321921
423 24 2 16.006283958 42.5064136249 86.834188224
424 24 2 16.572201168 43.0726947111 87.4918457748
425 24 2 16.9027051467 43.5760012408 88.3349944381
426 24 2 16.9781749206 43.9569555688 89.2955297702
427 24 2 16.8022352022 44.1673321258 90.2946478468
428 24 2 16.4014260072 44.1744530504 91.2500280291
429 24 2 15.8227836031 43.9641666889 92.0833362708
430 24 2 15.1295532793 43.5421374807 92.7273650564
431 24 2 14.3954247076 42.9333296597 93.1321591872
432 24 2 13.6978153257 42.179731831 93.2695690638
433 25 1 53.2066001055 15.7815904049 40.8382925182
434 25 1 51.1187374943 20.7626402626 41.9993106459
435 25 2 52.8543601183 15.3589416923 40.9066785199
436 25 2 52.1608538803 14.6676205288 41.2451665668
437 25 2 51.4634263785 14.1658358807 41.8241804336
438 25 2 50.8091573573 13.9069376529 42.584676171
439 25 2 50.2411927806 13.9221373022 43.4510682425
440 25 2 49.7948121933 14.2176629966 44.3381189436
441 25 2 49.4942130842 14.7741919342 45.1587075911
442 25 2 49.3503053504 15.5486115653 45.8317713402
443 25 2 49.3597168886 16.4779491856 46.2896938464
444 25 2 49.5051009538 17.4851117302 46.4844683144
445 25 2 49.7567172687 18.4859126006 46.3920731893
446 25 2 50.0751427701 19.3967450476 46.014661657
447 25 2 50.4148649163 20.1422027034 45.3803653872
448 25 2 50.7284300332 20.6619526706 44.5407304068
449 25 2 50.9707685899 20.9162347042 43.5660188174
450 25 2 51.1033031664 20.8894852517 42.5388045924
451 26 1 89.6901176408 83.1713310259 88.4997301305
452 26 1 90.6713859417 82.5401045264 93.8994205558
453 26 2 90.0829208228 83.4464537915 88.2215310792
454 26 2 90.7914003228 84.1180788309 87.8745056973
455 26 2 91.4233822161 84.9343386148 87.7863645439
456 26 2 91.937272876 85.8143041057 87.9735199224
457 26 2 92.3022423762 86.671239661 88.4272915931
458 26 2 92.5010345561 87.4205087554 89.1146979537
459 26 2 92.5315398736 87.9872883734 89.9814622247
460 26 2 92.4069876845 88.3133889279 90.956959632
461 26 2 92.1547404216 88.3625580849 91.9606546671
462 26 2 91.8137995827 88.1237850672 92.9094416831
463 26 2 91.4312508478 87.6123042572 93.7252197519
464 26 2 91.0579723453 86.8682066238 94.3420113559
465 26 2 90.743997247 85.9527855374 94.7119760616
466 26 2 90.5339533778 84.9429500435 94.8097710477
467 26 2 90.4629955087 83.9242148082 94.6348610355
468 26 2 90.5536010936 82.9829056855 94.2115670778
469 27 1 24.0453186244 75.4338526223 67.2689404496
470 27 1 22.9509006024 75.4143592326 72.6837220945
471 27 2 23.9345579738 75.9113913624 67.0099608789
472 27 2 23.519257271 76.782611052 66.6331962442
473 27 2 22.871946526 77.5673497041 66.4366661995
474 27 2 22.0570328671 78.206996054 66.4514407315
475 27 2 21.1541999804 78.6561636126 66.6893299792
476 27 2 20.2511451545 78.8868275233 67.1418077718
477 27 2 19.435585907 78.8908789532 67.7807887661
478 27 2 18.7872647678 78.6808641912 68.5611883505
479 27 2 18.3706809599 78.2888410875 69.425031987
480 27 2 18.2292114679 77.7634570663 70.3067394352
481 27 2 18.3811573421 77.1655150428 71.1391022161
482 27 2 18.8180756062 76.5624314002 71.8594094851
483 27 2 19.5055488122 76.0220911666 72.4151639581
484 27 2 20.3863220989 75.6066604762 72.7688668985
485 27 2 21.3855218193 75.3669202919 72.9014360269
486 27 2 22.4174800738 75.3376378567 72.8139448199
487 28 1 19.7001457245 19.328508222 61.256193221
488 28 1 16.4746471628 19.6697563447 65.7280719993
489 28 2 19.6729299148 18.8458002382 60.9848375683
490 28 2 19.6579274571 17.8522410843 60.6914689521
491 28 2 19.6748203268 16.8163374395 60.6997321796
492 28 2 19.7033724998 15.8283057344 61.0102609774
493 28 2 19.7222852375 14.973999 61.5961383733
494 28 2 19.7111384102 14.3270815937 62.4053501063
495 28 2 19.6522517371 13.9423148899 63.3655255875
496 28 2 19.5322962969 13.8505659273 64.3905342857
497 28 2 19.343509423 14.0559939604 65.3883362954
498 28 2 19.0844022501 14.5356713551 66.2693715281
499 28 2 18.7598954203 15.2416733807 66.9547228747
500 28 2 18.3808705794 16.1054464217 67.3833092895
501 28 2 17.9631785445 17.0440564557 67.5174531641
502 28 2 17.5261945438 17.967748269 67.3463145404
503 28 2 17.0910522169 18.7881264033 66.8868791444
504 28 2 16.6787173394 19.4262121664 66.182410182
505 29 1 75.7810446685 8.1672867314 6.2782319523
506 29 1 73.582165716 8.54616771567 11.3318812885
507 29 2 75.6497842736 8.58216043717 5.93467394405
508 29 2 75.1846834004 9.30860450844 5.36073126377
509 29 2 74.4723457771 9.92619159038 4.9310670719
510 29 2 73.5779646494 10.3937446041 4.69670284897
511 29 2 72.583326042 10.683761675 4.69085900534
512 29 2 71.5793541809 10.7849228552 4.92592692957
513 29 2 70.6578239933 10.7031219064 5.39233954648
514 29 2 69.902996068 10.4609290995 6.05944333048
515 29 2 69.3839365283 10.0955339945 6.8782922925
516 29 2 69.1482218392 9.65535571141 7.78610927608
517 29 2 69.2176023401 9.19562965733 8.71200792738
518 29 2 69.586019759 8.77337296628 9.58345379687
519 29 2 70.2201594084 8.44218754001 10.3328756606
520 29 2 71.0624867293 8.2473743779 10.9038244564
521 29 2 72.0364914132 8.22180451196 11.2561184656
522 29 2 73.0536611117 8.38292290007 11.3695057685
523 30 1 73.5182994426 54.3819943789 65.3103457413
524 30 1 72.585393848 54.8789087154 70.7325919876
525 30 2 73.0944316879 54.5314793036 64.9857352488
526 30 2 72.1790673406 54.668496959 64.5201342556
527 30 2 71.1716303075 54.622965193 64.2825474422
528 30 2 70.1570169798 54.4142840739 64.3040415552
529 30 2 69.2207778485 54.0767242978 64.592068807
530 30 2 68.4413198062 53.6563035056 65.1297876267
531 30 2 67.8827595684 53.2065918985 65.8775977245
532 30 2 67.589079606 52.7838294571 66.7767495521
533 30 2 67.5801192606 52.4417998179 67.7546991669
534 30 2 67.8497664421 52.2269280377 68.7317204189
535 30 2 68.3665147285 52.1740490748 69.6281717756
536 30 2 69.076335093 52.303232675 70.3717554352
537 30 2 69.9076005045 52.617954068 70.904107078
538 30 2 70.7776145407 53.1047772097 71.1861156179
539 30 2 71.6001489458 53.7345794416 71.2014880737
540 30 2 72.2933031052 54.4652059432 70.9582346304
541 31 1 80.5724275226 29.7005508285 72.7249262358
542 31 1 79.1839905823 32.765637568 77.1061905743
543 31 2 81.0925166819 29.7707086262 72.5461337922
544 31 2 82.0075926874 30.1299767835 72.2190064371
545 31 2 82.7836542018 30.7576477981 71.9411438192
546 31 2 83.3595477573 31.5984381304 71.7544134224
547 31 2 83.6923646609 32.5776389841 71.6923762725
548 31 2 83.7613520065 33.6079258141 71.7772279387
549 31 2 83.5698042472 34.597317725 72.0177754677
550 31 2 83.1447629144 35.457561284 72.408634644
551 31 2 82.5345518548 36.1121745855 72.9307207475
552 31 2 81.8043726408 36.503418372 73.5529880744
553 31 2 81.0303616212 36.5975588137 74.2352596698
554 31 2 80.2926502969 36.3879422563 74.9318893506
555 31 2 79.6680615488 35.8956016843 75.5959222323
556 31 2 79.2231074368 35.1673396203 76.1833745415
557 31 2 79.0079268044 34.2714622005 76.6572426195
558 31 2 79.0517152562 33.2915532527 76.9908757065
559 32 1 73.0716086054 33.0166984065 41.2486473133
560 32 1 73.7068339279 27.6829632075 42.5392861776
561 32 2 72.9940929684 33.354174121 41.6816404498
562 32 2 72.6842760354 33.8277395435 42.5495109872
563 32 2 72.1955906522 34.0533239546 43.4348065768
564 32 2 71.5844281076 34.0027369688 44.2698941843
565 32 2 70.9183431564 33.6729604854 44.9917170988
566 32 2 70.2698965838 33.0864237803 45.5475423836
567 32 2 69.7100414841 32.2889591371 45.8997673421
568 32 2 69.3016560756 31.3456243574 46.0293469033
569 32 2 69.093812519 30.3347729158 45.9375295292
570 32 2 69.1173041213 29.3409122502 45.6457434207
571 32 2 69.3818386079 28.4470011346 45.1936433941
572 32 2 69.8751532898 27.7268882088 44.6354964512
573 32 2 70.5641327745 27.238580872 44.0352354865
574 32 2 71.3978273458 27.0189580636 43.4606319753
575 32 2 72.3120968939 27.0804088463 42.9771187844
576 32 2 73.2354571156 27.4097031762 42.6418261415
577 33 1 37.5155146001 86.8181603951 86.4394071091
578 33 1 39.3085010922 81.6004607721 86.720122526
579 33 2 37.2003174515 86.9801010991 86.8657960793
580 33 2 36.4933122549 87.0846462434 87.6159053887
581 33 2 35.6975024258 86.9168207227 88.2577553102
582 33 2 34.8940884847 86.4832224346 88.7476211847
583 33 2 34.1649640466 85.814673754 89.0556312926
584 33 2 33.5852514369 84.9634121562 89.1684895818
585 33 2 33.2164544921 83.9983289106 89.0906875664
586 33 2 33.1008526497 82.9986898253 88.8440949379
587 33 2 33.2576472902 82.0469103812 88.4659662011
588 33 2 33.6812115829 81.2210437805 88.0055450254
589 33 2 34.3416033562 80.5876666065 87.519575816
590 33 2 35.1872942466 80.1958105457 87.0671316133
591 33 2 36.1498663715 80.0724932805 86.7042297427
592 33 2 37.150248436 80.2202558999 86.4787259856
593 33 2 38.1059228704 80.6169312861 86.4259526524
594 33 2 38.9384470858 81.2176645877 86.5654981371