LAMMPS input file for bananas

4320 atoms

2 atom types

0 80.0 xlo xhi
0 80.0 ylo yhi
0 80.0 zlo zhi

Masses

 1 1
 2 1

Atoms

1 1 1 73.539708082 23.3535283473 3.86565783353
2 1 1 70.34015616 21.0262204507 7.72110806853
3 1 2 73.3332282197 23.8150636235 3.63820928235
4 1 2 72.7553225846 24.544972947 3.18355835294
5 1 2 71.9680340048 25.0516518468 2.73982059746
6 1 2 71.0348853283 25.2973841887 2.36259496891
7 1 2 70.0326941611 25.2682384194 2.10141801769
8 1 2 69.044571148 24.9753373911 1.99524876742
9 1 2 68.1523446587 24.4538445428 2.06891770409
10 1 2 67.4291023515 23.7597588468 2.33086354361
11 1 2 66.9325294278 22.9648106523 2.77236406541
12 1 2 66.6996507808 22.1499236557 3.36833111957
13 1 2 66.7434562749 21.3978389217 4.07959734455
14 1 2 67.0517167549 20.7855732569 4.85648616758
15 1 2 67.5880987 20.3773993332 5.64333969149
16 1 2 68.2954759281 20.2189874059 6.38359176322
17 1 2 69.1011364936 20.333242592 7.02492382756
18 1 2 69.9234101878 20.7182171296 7.52403362355
19 2 1 42.6929063494 41.3423477484 8.32244685246
20 2 1 42.324396848 46.8539990018 8.26005879137
21 2 2 43.0731076759 41.1375801153 8.67015183637
22 2 2 43.9251957188 40.9099446013 9.21382273959
23 2 2 44.8909349541 40.911442852 9.58904999859
24 2 2 45.8806402211 41.1538036402 9.77665262071
25 2 2 46.8024419198 41.6268017619 9.7745510975
26 2 2 47.5706596786 42.2991900367 9.59795694629
27 2 2 48.1136118916 43.1215474046 9.27798622109
28 2 2 48.3801493054 44.0307835238 8.85882336742
29 2 2 48.3443171367 44.9558892862 8.39369392819
30 2 2 48.0077207815 45.8244091083 7.94001317771
31 2 2 47.3993794876 46.569045064 7.55415287293
32 2 2 46.5730813275 47.1337909102 7.28630311845
33 2 2 45.6024805596 47.4790369067 7.17589767259
34 2 2 44.5743842394 47.5851801378 7.24801966578
35 2 2 43.580839988 47.4544112658 7.51111534023
36 2 2 42.7107460982 47.1105148581 7.95622419752
37 3 1 36.8853246392 23.844641514 66.1429875532
38 3 1 35.6463727348 18.9309994449 63.9431896406
39 3 2 36.7559290393 23.8997972571 66.6792675274
40 3 2 36.3044147242 23.9224347342 67.6115080431
41 3 2 35.6210951707 23.8243568078 68.3841043926
42 3 2 34.7725905155 23.5970914513 68.9335043554
43 3 2 33.8405770759 23.2439417272 69.2164994648
44 3 2 32.9143427716 22.7796847217 69.2141633446
45 3 2 32.0826487696 22.2292246525 68.9335767976
46 3 2 31.4256391409 21.6253229163 68.4071824092
47 3 2 31.0075359431 21.005611975 67.6898274927
48 3 2 30.8707855509 20.4091652571 66.8537649028
49 3 2 31.0321897827 19.8729357194 65.9820673818
50 3 2 31.48137446 19.4283876838 65.1610557005
51 3 2 32.1817349859 19.0986289481 64.4724307509
52 3 2 33.0737727559 18.8963045724 63.9858267282
53 3 2 34.0805182975 18.8224443153 63.7524641601
54 3 2 35.114546831 18.8663687746 63.8004812927
55 4 1 39.2735884437 55.3975086024 12.2041032358
56 4 1 39.96013921 58.1269937164 7.45052036402
57 4 2 38.8043268725 55.5147241261 12.4750934327
58 4 2 37.9958659824 55.956479573 12.9491114972
59 4 2 37.3304592986 56.6528382558 13.3309079629
60 4 2 36.8562427234 57.5421195938 13.5712147521
61 4 2 36.6039256914 58.5450586215 13.6336601932
62 4 2 36.5839920874 59.5720307794 13.4980842009
63 4 2 36.7857446675 60.5312209518 13.1623758144
64 4 2 37.1782800846 61.3369921702 12.6426656057
65 4 2 37.7133056463 61.9176911935 11.9718554211
66 4 2 38.329541064 62.2221795098 11.1966194658
67 4 2 38.9583039878 62.2244944748 10.3731500749
68 4 2 39.5297702193 61.9262157375 9.56203593231
69 4 2 39.9793380004 61.3563212595 8.82273957408
70 4 2 40.2535162909 60.5685460511 8.20817753709
71 4 2 40.3148003338 59.636484369 7.75989715827
72 4 2 40.1450901139 58.6468817963 7.50428964582
73 5 1 33.2793320867 31.4584843246 18.7124944828
74 5 1 29.6743644529 28.0083258296 21.0828543248
75 5 2 33.3376525001 31.9470725309 18.9679585352
76 5 2 33.2116836442 32.8636160471 19.4343594802
77 5 2 32.7905753962 33.7067958901 19.8646682147
78 5 2 32.1117236926 34.3946323934 20.2381535833
79 5 2 31.2360170972 34.8593050207 20.5392637281
80 5 2 30.2422869709 35.0533340267 20.7590435999
81 5 2 29.2201222039 34.9539081086 20.895951186
82 5 2 28.2617034281 34.5649635957 20.9559980615
83 5 2 27.4534009986 33.9168256633 20.9522014495
84 5 2 26.8679025667 33.0634442744 20.9033977365
85 5 2 26.5575877948 32.0774767841 20.832525586
86 5 2 26.5497540904 31.0436654166 20.7645351405
87 5 2 26.84412852 30.0511132375 20.7241138829
88 5 2 27.4128926864 29.1851626476 20.7334364381
89 5 2 28.2032183012 28.5196166512 20.8101434157
90 5 2 29.1420823425 28.1100119098 20.965733515
91 6 1 12.9926376502 34.0416425915 44.7407994866
92 6 1 8.23783331865 31.3453142124 45.5405745189
93 6 2 13.4474455947 33.7631615029 44.8923897403
94 6 2 14.1787551524 33.211459523 45.3763951818
95 6 2 14.6939494034 32.6483944542 46.077096704
96 6 2 14.9416403833 32.1073764766 46.9252704701
97 6 2 14.894822336 31.6198062365 47.8382509423
98 6 2 14.5533332158 31.2122127623 48.7274656249
99 6 2 13.943869458 30.9038354135 49.5065082102
100 6 2 13.1175526697 30.7048702651 50.099014283
101 6 2 12.1452700321 30.6155407625 50.4456217323
102 6 2 11.1112131237 30.626077355 50.5093814497
103 6 2 10.1052040824 30.7176079642 50.2791251413
104 6 2 9.21450855808 30.8638781237 49.7704832883
105 6 2 8.51588168173 31.0336440032 49.0244604703
106 6 2 8.06857204045 31.1935202004 48.1036979073
107 6 2 7.90892132709 31.3110227312 47.0867638798
108 6 2 8.04705189204 31.3575298578 46.0609924407
109 7 1 18.6264056166 47.0369495931 8.84446123957
110 7 1 16.8975731975 51.3543128338 11.8259883945
111 7 2 18.2877064895 46.8874293097 8.43177713012
112 7 2 17.4907619794 46.6132898593 7.82913542832
113 7 2 16.5401531549 46.3823732408 7.48785784458
114 7 2 15.5164229964 46.2327808889 7.43264279104
115 7 2 14.5067792989 46.1952017484 7.66211484479
116 7 2 13.5971459138 46.2901150595 8.14895011398
117 7 2 12.8643310201 46.5259237293 8.84236673756
118 7 2 12.3690262635 46.8981884299 9.67275351616
119 7 2 12.150274876 47.3900322305 10.5580147869
120 7 2 12.2219129889 47.9736788852 11.4110532235
121 7 2 12.5713085066 48.6129845634 12.1477085251
122 7 2 13.1605124886 49.2667322629 12.6944284022
123 7 2 13.9297180938 49.8923886302 12.994972672
124 7 2 14.8027118143 50.4499807615 13.0155394001
125 7 2 15.6938201327 50.9057396263 12.7478458566
126 7 2 16.5157184346 51.2351780241 12.2098834651
127 8 1 41.0248328028 68.0184452842 33.1121353488
128 8 1 44.9473954055 64.1601210484 32.6173346007
129 8 2 41.1538059359 68.5118920186 32.8947466661
130 8 2 41.591598689 69.4082280778 32.6148016975
131 8 2 42.2572668283 70.194893099 32.5075912324
132 8 2 43.0997014948 70.7950775074 32.5670262381
133 8 2 44.0516820327 71.1489689375 32.7718283922
134 8 2 45.036002973 71.2192039705 33.0874695455
135 8 2 45.9725111056 70.9942737101 33.4693188702
136 8 2 46.7854112298 70.4895727875 33.8667108405
137 8 2 47.4101746845 69.7459961822 34.2275632603
138 8 2 47.7994209633 68.8262117535 34.5031244155
139 8 2 47.9272363209 67.8089482329 34.6524166631
140 8 2 47.7915357415 66.7818193106 34.6459714335
141 8 2 47.414252983 65.8333378819 34.4685152116
142 8 2 46.839341373 65.0448483331 34.1203616777
143 8 2 46.1287675807 64.4831122183 33.6173831153
144 8 2 45.3568635206 64.1942231223 32.9895636958
145 9 1 24.7302790453 33.2623559517 37.1217690065
146 9 1 19.2196284431 33.4485562801 37.4624307729
147 9 2 24.9928066983 33.2129023337 37.6075829206
148 9 2 25.3465644444 33.3015375197 38.5773505587
149 9 2 25.4848263788 33.6075337785 39.5575035765
150 9 2 25.3833650255 34.0910203867 40.4682155533
151 9 2 25.0398030457 34.6959488501 41.2359894336
152 9 2 24.4738299255 35.355201574 41.8003565876
153 9 2 23.725407332 35.9967094524 42.1193883647
154 9 2 22.8511267144 36.5500207747 42.1735177782
155 9 2 21.9190511439 36.9527227104 41.9673229841
156 9 2 21.0025115478 37.1561300725 41.5291099937
157 9 2 20.1734227903 37.1297228413 40.9083326572
158 9 2 19.4957288258 36.8639279831 40.1710850767
159 9 2 19.0195743776 36.3709920068 39.3940773058
160 9 2 18.7767343812 35.683864727 38.6576434333
161 9 2 18.777717783 34.8531959764 38.0384193455
162 9 2 19.0108096786 33.9427190094 37.6023575701
163 10 1 38.5237314923 26.3814115731 24.0053678202
164 10 1 35.1231009041 25.0604261167 28.153704847
165 10 2 39.0600591859 26.4097006537 24.1429684052
166 10 2 39.9829184816 26.5999623674 24.5737597838
167 10 2 40.7301974205 26.9406460619 25.2053916537
168 10 2 41.2354114555 27.3860865053 25.9926600967
169 10 2 41.4541396089 27.8810701682 26.8761753368
170 10 2 41.368073325 28.3658677891 27.7877749599
171 10 2 40.9866852467 28.781678537 28.6567367351
172 10 2 40.346365809 29.07598955 29.4162247577
173 10 2 39.5071063483 29.2073623423 30.0093813629
174 10 2 38.5470310523 29.1492098114 30.3945095498
175 10 2 37.5552761492 28.8922195815 30.548873552
176 10 2 36.6238653789 28.4452028015 30.4707711418
177 10 2 35.8393222745 27.8342910326 30.1796887837
178 10 2 35.2747837743 27.1005544261 29.7145254949
179 10 2 34.9833339847 26.2962582889 29.1300473044
180 10 2 34.9931657061 25.4800992408 28.4918954757
181 11 1 44.4688179689 30.8962170245 35.243889505
182 11 1 48.5055020619 27.3904182673 33.8537284826
183 11 2 44.2976906035 30.8586738496 35.7699004582
184 11 2 43.9619541842 30.5591408839 36.7031801968
185 11 2 43.6464495662 29.9837636077 37.5049581194
186 11 2 43.3964624867 29.1817848998 38.1114122589
187 11 2 43.2513069343 28.2231017537 38.4765238888
188 11 2 43.240741784 27.1918943538 38.5762720071
189 11 2 43.3822583557 26.1789532762 38.410822787
190 11 2 43.6794861264 25.2734041706 38.0045144301
191 11 2 44.1218619138 24.5545841956 37.4036388046
192 11 2 44.6855926817 24.0848106484 36.6722220651
193 11 2 45.3358242119 23.9037009102 35.8861888398
194 11 2 46.0298179726 24.0245614274 35.126441904
195 11 2 46.7208466221 24.4331748648 34.4714881074
196 11 2 47.3624530803 25.0890959774 33.9902826856
197 11 2 47.912684968 25.9293380869 33.735944174
198 11 2 48.3379184536 26.8741141485 33.7409127955
199 12 1 61.0829364456 25.0557073059 59.202592475
200 12 1 63.5615831731 20.3043202218 57.8614652482
201 12 2 61.2229020586 25.4894243657 58.8868699272
202 12 2 61.7038636667 26.2304130647 58.3455182017
203 12 2 62.4316123751 26.8150254008 57.8960070839
204 12 2 63.3411522105 27.1818810302 57.5619348667
205 12 2 64.3509174241 27.2894475507 57.3563778961
206 12 2 65.3702069919 27.1198260697 57.2806986966
207 12 2 66.3074517705 26.6803826397 57.324421781
208 12 2 67.0785607795 26.003076863 57.4661884632
209 12 2 67.6145858702 25.1415488589 57.6757036452
210 12 2 67.8680061645 24.1662301103 57.9164971341
211 12 2 67.8170594561 23.1579238225 58.1492478032
212 12 2 67.4677257778 22.2004399266 58.3353676072
213 12 2 66.8531823368 21.3729560287 58.4405187795
214 12 2 66.0307795016 20.7428005824 58.4377436279
215 12 2 65.0768134689 20.3593160805 58.3099216562
216 12 2 64.0795720691 20.2493616185 58.0513300516
217 13 1 10.8685958001 47.3985406846 26.1064611252
218 13 1 7.04590630521 44.8267316721 29.1545481466
219 13 2 10.8735481433 47.9507853804 26.1552756545
220 13 2 10.6522273414 48.961726512 26.2049258542
221 13 2 10.1468647052 49.8661605494 26.2125211816
222 13 2 9.39989082167 50.5839420309 26.1960964041
223 13 2 8.47575849699 51.0519383761 26.1758756575
224 13 2 7.45506805587 51.2297842521 26.1724290699
225 13 2 6.42722083725 51.1035607661 26.2047978497
226 13 2 5.48227050116 50.6870641346 26.2887587303
227 13 2 4.70271487842 50.0205481956 26.4353859629
228 13 2 4.15597651373 49.1670553789 26.6500419284
229 13 2 3.88825728101 48.2066705567 26.9318883704
230 13 2 3.92032720606 47.2292215219 27.2739628001
231 13 2 4.24563133421 46.3260914248 27.6638131088
232 13 2 4.83088719691 45.5818894432 28.0846325438
233 13 2 5.61911841982 45.0667388819 28.5167915997
234 13 2 6.53484796699 44.8298856208 28.9396271946
235 14 1 50.3931994934 70.5049371073 42.8014261993
236 14 1 45.2078888051 71.5379891483 44.4024719851
237 14 2 50.4498561657 70.3683069234 42.2671006409
238 14 2 50.3842235733 69.9595381443 41.3173372708
239 14 2 50.0908299188 69.3945600041 40.4999206843
240 14 2 49.5835945436 68.7364718564 39.880984278
241 14 2 48.89592789 68.0568597829 39.5085705104
242 14 2 48.0776862294 67.4292717137 39.4082519605
243 14 2 47.1906273959 66.92251373 39.5808004553
244 14 2 46.3027817251 66.5943785736 40.0021167203
245 14 2 45.4822512706 66.486377993 40.6254269633
246 14 2 44.7910024841 66.6199590585 41.385546181
247 14 2 44.2792181385 66.994549319 42.2048195979
248 14 2 43.980723303 67.5876089796 43.000200691
249 14 2 43.9099022778 68.3566853433 43.6908206591
250 14 2 44.0603875037 69.2432822612 44.2053593973
251 14 2 44.4056399485 70.1781918999 44.4885461344
252 14 2 44.9013680682 71.0878028507 44.5061972154
253 15 1 19.9258033439 42.462437374 -0.191582249929
254 15 1 17.6026315455 39.0324924946 3.46305069754
255 15 2 20.3942637787 42.7042376945 -0.0199459656673
256 15 2 21.1411009548 43.2094194862 0.490422137596
257 15 2 21.6684564874 43.7311068706 1.21373979008
258 15 2 21.9366614281 44.2074897476 2.09383948644
259 15 2 21.9296677122 44.5808874017 3.06026345707
260 15 2 21.6565108974 44.8030059454 4.03468570549
261 15 2 21.1504865961 44.8393401777 4.93805121358
262 15 2 20.4661156698 44.672318641 5.69778159518
263 15 2 19.6741747983 44.3029052126 6.25439042201
264 15 2 18.8552453743 43.7505112497 6.56690525261
265 15 2 18.0923687248 43.0512262961 6.61660216087
266 15 2 17.4634771166 42.254528617 6.40871237184
267 15 2 17.0342904377 41.418775387 5.97194544958
268 15 2 16.8523260058 40.6058835898 5.35587249709
269 15 2 16.9425674914 39.8756864507 4.6264078828
270 15 2 17.3051877232 39.2804797979 3.85980132203
271 16 1 35.4365741708 9.25129966926 34.5749772032
272 16 1 33.1068217515 5.22942043387 31.5892223335
273 16 2 35.9546166475 9.38200008854 34.4268860798
274 16 2 36.9570409622 9.39401831969 34.1652545323
275 16 2 37.9226958442 9.1029810445 33.9280669181
276 16 2 38.7626270394 8.53398571801 33.717805374
277 16 2 39.3993396716 7.73746492873 33.5344977979
278 16 2 39.7738616934 6.78458960299 33.3757153052
279 16 2 39.8511190308 5.7607819652 33.2367936158
280 16 2 39.6231324913 4.75792953044 33.1112581902
281 16 2 39.1097450459 3.86600980305 32.9914143668
282 16 2 38.3568131954 3.16488906757 32.8690487099
283 16 2 37.4320272729 2.71704279041 32.7361776418
284 16 2 36.4187416507 2.56186114804 32.5857751253
285 16 2 35.4083772124 2.71205871767 32.4124130676
286 16 2 34.4920885833 3.15251557758 32.212756077
287 16 2 33.7524556303 3.84165544752 31.9858654743
288 16 2 33.2559565273 4.71523525554 31.7332848515
289 17 1 32.7166090291 38.9994421091 15.1694163821
290 17 1 27.2017736905 38.8490568935 14.8831183962
291 17 2 32.9345363851 38.746160096 15.6118386661
292 17 2 33.1854343161 38.4030215319 16.5566964148
293 17 2 33.2039381845 38.2431857926 17.5802002763
294 17 2 32.9768872386 38.2659133028 18.5908344036
295 17 2 32.5135023915 38.4538243349 19.4982559918
296 17 2 31.84454576 38.7744831247 20.2215297828
297 17 2 31.0195167792 39.1833543048 20.6965050982
298 17 2 30.1021404622 39.6278621842 20.8816630019
299 17 2 29.1645590345 40.0521828818 20.7619006403
300 17 2 28.2807563638 40.4023325245 20.3499078271
301 17 2 27.5198145277 40.6310877323 19.6850104004
302 17 2 26.9396171669 40.7022899038 18.829585778
303 17 2 26.5815735466 40.5941409753 17.8633774224
304 17 2 26.4668442122 40.301190257 16.8762264372
305 17 2 26.5944122622 39.834831248 15.9598827906
306 17 2 26.9411760361 39.2222631497 15.1996425515
307 18 1 46.7402298638 21.4579364128 12.2498011687
308 18 1 44.4436407605 17.486901008 15.3278764383
309 18 2 46.9349828173 21.8915054879 12.5352319523
310 18 2 47.08559209 22.6982051493 13.1676894722
311 18 2 46.9538797614 23.428363946 13.8908561233
312 18 2 46.559172107 24.0068771652 14.6543863021
313 18 2 45.944766723 24.3724621832 15.4042553773
314 18 2 45.1739860668 24.4832442126 16.0876838908
315 18 2 44.3244057836 24.3205730777 16.6579482641
316 18 2 43.4807838941 23.8907231275 17.0786395275
317 18 2 42.7273353275 23.224321346 17.3269819007
318 18 2 42.1400559554 22.3735557846 17.3959087439
319 18 2 41.7797957715 21.4074187601 17.2947066635
320 18 2 41.6867125774 20.4054183902 17.0481690624
321 18 2 41.876611706 19.4503316403 16.6943362878
322 18 2 42.339505408 18.620659425 16.2810283553
323 18 2 43.0405232082 17.9834714592 15.8614862822
324 18 2 43.9230902565 17.5882930329 15.4895193108
325 19 1 20.2879581992 31.5554656184 11.2000522412
326 19 1 15.3612918664 29.9847391745 9.25614680474
327 19 2 20.3033341951 32.0680789566 11.4107006029
328 19 2 20.2298216783 33.083951281 11.6005672448
329 19 2 20.0153666519 34.0942678521 11.5185948175
330 19 2 19.6624784156 35.008047999 11.1810659343
331 19 2 19.1862840861 35.7431100875 10.6275564964
332 19 2 18.6131498011 36.2335621569 9.91732845549
333 19 2 17.9782775161 36.435807796 9.12392824476
334 19 2 17.3224964402 36.3325198393 8.32848321855
335 19 2 16.6885415631 35.9342196919 7.61230711063
336 19 2 16.1171584746 35.2783183318 7.04948850474
337 19 2 15.6433895134 34.4257063988 6.70013785819
338 19 2 15.2933797511 33.4552041758 6.60490859435
339 19 2 15.0819939395 32.4563773305 6.78129165178
340 19 2 15.0114616275 31.5213732442 7.22202123187
341 19 2 15.0711739441 30.7365220243 7.89573705705
342 19 2 15.2386505686 30.1744677459 8.74984277621
343 20 1 34.1131283447 43.25690483 27.9512468759
344 20 1 31.3335851344 43.1947533895 32.7249527531
345 20 2 33.8740656893 43.5495410217 27.5455441594
346 20 2 33.2373809865 43.9699585824 26.8445936083
347 20 2 32.3997065556 44.2054432061 26.282189349
348 20 2 31.4302740356 44.2495220412 25.9192738538
349 20 2 30.4103244633 44.113168362 25.7986067275
350 20 2 29.4257033698 43.8238013844 25.9408672833
351 20 2 28.5590361899 43.4227870772 26.3427696792
352 20 2 27.8821971741 42.9616677651 26.9773624131
353 20 2 27.4497582434 42.4974641834 27.7964848808
354 20 2 27.2940149042 42.0874781902 28.735157086
355 20 2 27.4220425992 41.7840698553 29.7175023933
356 20 2 27.8150517999 41.6298849799 30.6636634809
357 20 2 28.4301006217 41.6539680457 31.4970811216
358 20 2 29.2040088621 41.8691148879 32.1514723524
359 20 2 30.059116707 42.2707063893 32.576871989
360 20 2 30.9103632155 42.8371295002 32.7441868187
361 21 1 32.607938293 23.4381871825 78.1275975749
362 21 1 28.2112535103 24.3255612848 74.9027377042
363 21 2 33.0668409311 23.2813287896 77.8589241647
364 21 2 33.7805896594 22.8300889185 77.2585948028
365 21 2 34.2498937051 22.2192379581 76.5657276958
366 21 2 34.4310197215 21.5151545568 75.8275475407
367 21 2 34.3065010188 20.7927152507 75.0954091979
368 21 2 33.8867296068 20.1284696678 74.4201168328
369 21 2 33.2090089903 19.5936632336 73.8472932516
370 21 2 32.3341540549 19.2477433411 73.4132215051
371 21 2 31.3409479523 19.13294088 73.141537785
372 21 2 30.3189612268 19.2704210038 73.0410770483
373 21 2 29.3603876995 19.6583539827 73.105067735
374 21 2 28.5516412482 20.2720819785 73.3117489771
375 21 2 27.965479413 21.0663665407 73.6263540442
376 21 2 27.6543717411 21.9795119706 74.0042792373
377 21 2 27.6457173279 22.9389887187 74.3951493974
378 21 2 27.9393474629 23.86804426 74.7474094664
379 22 1 26.319291154 5.50862434026 46.6351433657
380 22 1 24.2476077802 2.69465355621 50.9138917208
381 22 2 26.2586060784 6.05884662901 46.6660358018
382 22 2 25.9206961444 7.03289589401 46.7684805043
383 22 2 25.3214845299 7.86126212512 46.9364234691
384 22 2 24.5184971142 8.47164021273 47.1732774569
385 22 2 23.5878333962 8.81159408389 47.4761741731
386 22 2 22.6172302286 8.8533361102 47.8362257047
387 22 2 21.6980648381 8.59625987585 48.2393346301
388 22 2 20.9170260354 8.06699545084 48.6674789614
389 22 2 20.3482127623 7.31698213124 49.1003548002
390 22 2 20.0463801703 6.41777988486 49.5172269841
391 22 2 20.0419488357 5.45454685144 49.8988190408
392 22 2 20.3382320051 4.5182774058 50.2290701875
393 22 2 20.9111336015 3.69750826382 50.4965992281
394 22 2 21.711344518 3.07024859741 50.6957419186
395 22 2 22.6688370105 2.69686970698 50.8270672483
396 22 2 23.6992475396 2.61460233876 50.8973255776
397 23 1 52.5247004126 27.6593851417 22.5842518651
398 23 1 50.2655418949 24.5541983791 26.5556507399
399 23 2 52.4441678649 28.2050668408 22.6401766367
400 23 2 52.0685760763 29.1617598645 22.7710172954
401 23 2 51.4327939297 29.9618617803 22.9415106902
402 23 2 50.5963212115 30.5346861319 23.1551357473
403 23 2 49.6369501173 30.8302622058 23.4114400574
404 23 2 48.6436747013 30.8238897278 23.7060811114
405 23 2 47.7085793059 30.5183902271 24.0312221082
406 23 2 46.9184453202 29.9438498618 24.3762462586
407 23 2 46.3468412882 29.1548771454 24.7287244772
408 23 2 46.0474173328 28.2256255273 25.07554826
409 23 2 46.0490150902 27.2430345037 25.4041244899
410 23 2 46.3530388722 26.2989053153 25.7035232652
411 23 2 46.9333276668 25.481533509 25.9654741316
412 23 2 47.7385396443 24.8676610354 26.1851199112
413 23 2 48.6968318283 24.5154814245 26.361459422
414 23 2 49.7224083904 24.4593356017 26.4974387324
415 24 1 27.0581528169 3.32253259013 77.0386007275
416 24 1 22.1558727902 1.29948752062 78.5855106304
417 24 2 27.2290942429 3.7652891846 77.3251791897
418 24 2 27.3338522478 4.674668097 77.8104685521
419 24 2 27.147090454 5.61359710998 78.206678537
420 24 2 26.6799608932 6.49214285948 78.4954645316
421 24 2 25.9691703698 7.22587575456 78.6682733325
422 24 2 25.0736347336 7.74356550887 78.7271227477
423 24 2 24.0691088576 7.99367359093 78.6844176785
424 24 2 23.041281784 7.9490508235 78.5618194462
425 24 2 22.0779663968 7.60941195851 78.3882714202
426 24 2 21.2610955122 7.00136167671 78.1973609075
427 24 2 20.6592539214 6.17596964204 78.0242577592
428 24 2 20.3214270703 5.20411563835 77.9025087331
429 24 2 20.2725361668 4.1700290665 77.8609797956
430 24 2 20.5111666794 3.16361165959 77.9212250668
431 24 2 21.0096972682 2.27224318031 78.0955222193
432 24 2 21.7168173957 1.57281698908 78.385753402
433 25 1 40.4083926577 40.6880016973 36.7958880489
434 25 1 36.3662345049 38.0883932268 34.0717396813
435 25 2 40.3864825834 41.2415500954 36.7738492726
436 25 2 40.3250514605 42.2392228467 36.5012225869
437 25 2 40.2260594132 43.1118729186 35.951556836
438 25 2 40.0796178145 43.7831614593 35.1760721072
439 25 2 39.8801629373 44.195103182 34.2465712841
440 25 2 39.6269630734 44.3133515695 33.2488954054
441 25 2 39.324185226 44.130329467 32.2750994841
442 25 2 38.9805152994 43.6659197196 31.4150619389
443 25 2 38.6083664014 42.9656529041 30.7482924164
444 25 2 38.2227474221 42.0965573389 30.3366846997
445 25 2 37.8398950133 41.1410496314 30.2188752552
446 25 2 37.4757936614 40.1894226251 30.4067216221
447 25 2 37.1447187441 39.3316154477 30.8842216291
448 25 2 36.8579353678 38.6490158004 31.6089719501
449 25 2 36.6226715834 38.2070416863 32.5160330536
450 25 2 36.4414595687 38.0491787343 33.5238482675
451 26 1 71.6761466452 13.822313376 72.7193970881
452 26 1 68.8914826138 16.8235752989 76.4283139332
453 26 2 72.2277235215 13.8719976605 72.7453972704
454 26 2 73.211075103 14.195223485 72.7900598355
455 26 2 74.0565495827 14.7918143616 72.8420429211
456 26 2 74.6900214679 15.6083662891 72.9155706816
457 26 2 75.0566887358 16.5714264042 73.0229035315
458 26 2 75.1260678911 17.5941880139 73.1732206422
459 26 2 74.8947724556 18.5844027935 73.3717832843
460 26 2 74.3868216364 19.4527889751 73.6194552773
461 26 2 73.6514510395 20.1211691417 73.9126242546
462 26 2 72.7586249754 20.5295958899 74.243530921
463 26 2 71.7926594001 20.6418158759 74.6009762919
464 26 2 70.8445367402 20.4485742103 74.9713424508
465 26 2 70.0036130884 19.968458017 75.3398337857
466 26 2 69.3494736343 19.2462022661 75.6918255699
467 26 2 68.944678687 18.3486123016 76.0141969666
468 26 2 68.8290614706 17.3584747121 76.2965269583
469 27 1 26.4152462499 41.1666416004 75.7976158869
470 27 1 21.7583334344 42.0444251326 78.6367443027
471 27 2 26.6087514206 41.6082868421 75.5239613282
472 27 2 26.7498363204 42.4466216857 74.9317284752
473 27 2 26.5907102781 43.2465037813 74.2927311772
474 27 2 26.1421290944 43.9492331354 73.6775918533
475 27 2 25.4412316327 44.5049649671 73.1547583324
476 27 2 24.5481547107 44.877252927 72.7842650159
477 27 2 23.5405517903 45.0463710841 72.612260903
478 27 2 22.506515072 45.0111118921 72.6668032321
479 27 2 21.5365461263 44.7888962536 72.9553001394
480 27 2 20.7153069175 44.4141856518 73.4638354263
481 27 2 20.1139030919 43.9353410781 74.1584369841
482 27 2 19.7834028883 43.4102150572 74.9881732607
483 27 2 19.7501824042 42.900878544 75.8897955358
484 27 2 20.0135214853 42.4679633219 76.7935028722
485 27 2 20.5456693658 42.1651355778 77.6293042852
486 27 2 21.2943740759 42.034204373 78.3333982333
487 28 1 32.7312808029 20.6293279811 17.2738117518
488 28 1 33.6369122133 25.4319649484 14.6984475115
489 28 2 32.463920287 20.2490423312 16.9716813709
490 28 2 31.8132011638 19.7144408144 16.3681783865
491 28 2 31.0254007641 19.4531964197 15.7480397669
492 28 2 30.1799677372 19.4918941103 15.1503814222
493 28 2 29.3616037926 19.8297799299 14.6122702456
494 28 2 28.6525433653 20.4388297238 14.1653455651
495 28 2 28.1250581667 21.2663034662 13.8329353032
496 28 2 27.8348698116 22.2395523717 13.6279296994
497 28 2 27.8160709415 23.2726406387 13.5516063988
498 28 2 28.0780177718 24.2741782677 13.5935139989
499 28 2 28.6044772979 25.1556510155 13.7324246664
500 28 2 29.3551068897 25.8394882318 13.9382689976
501 28 2 30.2691314148 26.266133217 14.1748767644
502 28 2 31.2708827294 26.3994716557 14.4032737338
503 28 2 32.2766966273 26.2301233405 14.5852340648
504 28 2 33.2025386088 25.7762971524 14.6867644921
505 29 1 57.4403485501 50.4077937286 52.4107514311
506 29 1 52.9408834618 53.0047469983 54.2892185443
507 29 2 57.9012195759 50.7158521488 52.4018354094
508 29 2 58.6249710988 51.4459389014 52.2729669574
509 29 2 59.1109431273 52.3260809265 52.0227046664
510 29 2 59.313022126 53.2862609497 51.6900360437
511 29 2 59.2109706506 54.2491664469 51.3214597137
512 29 2 58.8122719364 55.1372364743 50.9667471924
513 29 2 58.1514478218 55.8797311414 50.6744063465
514 29 2 57.2869121749 56.4191793624 50.4872600314
515 29 2 56.2956466253 56.7166171925 50.4385429019
516 29 2 55.2661838948 56.7551392872 50.5488721629
517 29 2 54.2905382758 56.5414397792 50.8243683655
518 29 2 53.4558187752 56.1052021262 51.2560975359
519 29 2 52.8362893604 55.4963935432 51.8208854825
520 29 2 52.4865999982 54.7807106238 52.4834300622
521 29 2 52.4368054554 54.0335912721 53.1995188759
522 29 2 52.6896258876 53.3333387389 53.9200591106
523 30 1 41.2474687762 9.89584671237 39.9558447871
524 30 1 43.8932996709 13.6275720303 36.8587822935
525 30 2 40.9868766541 10.1028307552 40.3992756611
526 30 2 40.7074074663 10.592796919 41.2683442099
527 30 2 40.7134568927 11.1910793466 42.114199725
528 30 2 40.9976248176 11.8597230863 42.8528567164
529 30 2 41.5271613676 12.5543599411 43.4101005529
530 30 2 42.2469519749 13.228252511 43.7282519276
531 30 2 43.0845409228 13.8365541818 43.7714241724
532 30 2 43.9567354908 14.3403967749 43.5287942318
533 30 2 44.7771887487 14.7104332772 43.015589156
534 30 2 45.4642698481 14.9295127432 42.2716981952
535 30 2 45.9485044567 14.9942435577 41.3580370016
536 30 2 46.1789071576 14.9153025726 40.3509953305
537 30 2 46.1276286338 14.7164619404 39.3354743178
538 30 2 45.792494059 14.4324223459 38.3971479691
539 30 2 45.1972013275 14.1056501316 37.6146542024
540 30 2 44.3891610539 13.7825066041 37.0524272125
541 31 1 11.8893595014 35.2273111684 34.070294506
542 31 1 14.1140601671 34.9937547352 39.1214477804
543 31 2 11.4066539841 34.9602380447 34.0150774956
544 31 2 10.6220141229 34.2836425398 34.0121072648
545 31 2 10.0453128969 33.4345815939 34.1533914363
546 31 2 9.72061123318 32.4942470914 34.4428562257
547 31 2 9.66900097218 31.552150258 34.8709215812
548 31 2 9.88668240299 30.6979629506 35.4153743797
549 31 2 10.3453105967 30.0133443083 36.0433930941
550 31 2 10.994578971 29.564497739 36.7145393871
551 31 2 11.7668046006 29.3961366569 37.3844439581
552 31 2 12.583097335 29.5274089733 38.008850686
553 31 2 13.360550425 29.9501518163 38.5476504565
554 31 2 14.0197972511 30.6296355543 38.9685370008
555 31 2 14.4922453789 31.5077293097 39.2499515253
556 31 2 14.7263285758 32.5081994323 39.3830477384
557 31 2 14.6922069359 33.5436579932 39.3724981662
558 31 2 14.3844867072 34.523527961 39.236068264
559 32 1 20.3356900867 50.3518768377 68.3336553746
560 32 1 16.8116977913 46.9713489175 70.9165801402
561 32 2 20.2399965034 50.4192883773 67.7917328612
562 32 2 20.0564396488 50.3100754984 66.7779136271
563 32 2 19.8652952517 49.9051983353 65.8435751909
564 32 2 19.6647836067 49.2419038986 65.0733248539
565 32 2 19.4539788082 48.3809932426 64.536813726
566 32 2 19.2328931438 47.4012796118 64.2823882126
567 32 2 19.0024759748 46.3924048244 64.3326833696
568 32 2 18.764527204 45.4466686601 64.682559778
569 32 2 18.5215332196 44.6506159818 65.2995719887
570 32 2 18.2764402676 44.0771484027 66.1269258379
571 32 2 18.0323859093 43.7788794992 67.0886550839
572 32 2 17.7924130409 43.7833392239 68.0965455266
573 32 2 17.5591925417 44.0904646241 69.0581754962
574 32 2 17.3347798306 44.6726055797 69.8853398415
575 32 2 17.1204275202 45.4770450378 70.5020895934
576 32 2 16.9164712445 46.4308040311 70.8516545107
577 33 1 53.3804071819 77.9678696473 55.9169267177
578 33 1 57.7246488413 78.0356612911 59.3288117918
579 33 2 52.8862419467 77.9584061885 56.1681094227
580 33 2 52.0572901739 77.7620151721 56.7577869094
581 33 2 51.4198891479 77.3596559307 57.4686152882
582 33 2 51.035159671 76.7996322984 58.2507960678
583 33 2 50.9411922091 76.1446187974 59.0480271765
584 33 2 51.1495750476 75.4659480221 59.8026347451
585 33 2 51.6443380503 74.8371088646 60.4608299262
586 33 2 52.3834082941 74.327048198 60.9776116038
587 33 2 53.3024449042 73.9938865537 61.3208681249
588 33 2 54.3207035523 73.8796205896 61.4743041905
589 33 2 55.3483960866 74.0062952078 61.4389261292
590 33 2 56.2948744818 74.3739942202 61.232950172
591 33 2 57.0768931643 74.9608327092 60.8901420928
592 33 2 57.6261966238 75.7249517797 60.4567395471
593 33 2 57.8957407205 76.6083338856 59.9872376343
594 33 2 57.8639806328 77.5420909737 59.5394218145