LAMMPS input file for bananas

648 atoms

2 atom types

0 85.0126855346 xlo xhi
0 85.0126855346 ylo yhi
0 85.0126855346 zlo zhi

Masses

 1 1
 2 1

Atoms

1 1 1 26.7316076851 56.0185135071 77.6514607405
2 1 1 26.086920983 50.6402100805 78.7359986003
3 1 2 26.5777739985 56.3594120158 78.0607344774
4 1 2 26.092690373 56.8689085711 78.8213639191
5 1 2 25.3954539489 57.1640867892 79.5285988162
6 1 2 24.555472902 57.2083736517 80.1335124677
7 1 2 23.6551661988 56.9880642166 80.5965044808
8 1 2 22.7824513282 56.5135707873 80.8909102404
9 1 2 22.0227308572 55.8184738588 81.0054313181
10 1 2 21.4511082155 54.9564613456 80.9451652935
11 1 2 21.1255422182 53.9964350715 80.7311411231
12 1 2 21.081564275 53.0162305525 80.3984024076
13 1 2 21.3290397971 52.095522498 79.9928132614
14 1 2 21.8512689913 51.3085626735 79.5668779206
15 1 2 22.6065090014 50.7174120508 79.1749551227
16 1 2 23.5317786585 50.3662841164 78.868303453
17 1 2 24.5485990454 50.2775149301 78.690409261
18 1 2 25.5701466408 50.4495272534 78.6730229965
19 2 1 59.602437246 10.0860546554 29.0934723859
20 2 1 55.6416914906 12.1906460954 32.3185582751
21 2 2 60.0303887106 10.425237358 28.9975858579
22 2 2 60.6611522007 11.2125562605 28.7615426912
23 2 2 61.0240760828 12.1427970441 28.4851582645
24 2 2 61.0881154794 13.1397955934 28.2106717264
25 2 2 60.8494680347 14.1213030007 27.9801492377
26 2 2 60.3319204898 15.0064823346 27.8316497539
27 2 2 59.5846805842 15.7232767102 27.7957560525
28 2 2 58.6778919023 16.2149770814 27.8927871951
29 2 2 57.6962404732 16.445391119 28.1309464991
30 2 2 56.7312358649 16.4021420449 28.5055738271
31 2 2 55.8728703327 16.0977967419 28.999570346
32 2 2 55.2014162646 15.5687203164 29.5849570402
33 2 2 54.7801095686 14.8717615161 30.2254249236
34 2 2 54.6493858882 14.0790711181 30.8796445071
35 2 2 54.8231950016 13.2715255791 31.505032871
36 2 2 55.2877293369 12.5313553619 32.061634984
37 3 1 6.71227532661 75.7130206884 22.8887671171
38 3 1 9.02549587936 78.2903973883 27.1927340179
39 3 2 6.77879200014 75.9675842619 22.4007563516
40 3 2 6.82448627805 76.6312252934 21.606437382
41 3 2 6.77981575817 77.4906840915 21.0295620661
42 3 2 6.66681907567 78.4742659069 20.7241957722
43 3 2 6.51376261282 79.4989625087 20.7196565471
44 3 2 6.35256409381 80.4780181634 21.0178428542
45 3 2 6.21588336949 81.3288371875 21.5930605338
46 3 2 6.13414555923 81.9805123241 22.3943647569
47 3 2 6.13276788266 82.3802877488 23.3502035105
48 3 2 6.22984294799 82.4983676233 24.3749393722
49 3 2 6.43448965915 82.3306319052 25.3766551321
50 3 2 6.74602205209 81.8990118799 26.2655318013
51 3 2 7.15401181851 81.2494911819 26.9620353724
52 3 2 7.63923881834 80.4479145096 27.4041661315
53 3 2 8.17544294413 79.573986057 27.553109767
54 3 2 8.73171765964 78.7140046898 27.3967751896
55 4 1 68.4716787953 57.7294252667 7.4845079008
56 4 1 66.610285681 53.9793100146 11.0886502858
57 4 2 68.3858975108 58.2571433605 7.63126202451
58 4 2 68.0046986218 59.1699092086 7.93947611346
59 4 2 67.3705012652 59.9137336233 8.28294221671
60 4 2 66.5442001854 60.4201469697 8.6493055055
61 4 2 65.6041998676 60.6423189969 9.0241241338
62 4 2 64.6392681788 60.5593272909 9.39218557401
63 4 2 63.7404454136 60.178064296 9.73889319814
64 4 2 62.992746215 59.5326090876 10.0515967215
65 4 2 62.4674107169 58.6811211549 10.3207452422
66 4 2 62.2154111961 57.7005393197 10.5407577805
67 4 2 62.2628060857 56.6795689674 10.7105319702
68 4 2 62.6083648186 55.7105967893 10.8335445362
69 4 2 63.2236799902 54.8812699819 10.9175344004
70 4 2 64.0557566173 54.2665074392 10.9737972998
71 4 2 65.0318424898 53.9216710963 11.01615621
72 4 2 66.0660593396 53.8775198365 11.059701418
73 5 1 68.4458944522 55.6590194797 51.531503493
74 5 1 68.8892609524 52.4968384664 56.0394995497
75 5 2 68.3023153616 56.185618869 51.6287645645
76 5 2 67.8623857138 57.0712878281 51.9377992082
77 5 2 67.243621973 57.7615449908 52.400537248
78 5 2 66.5121553639 58.1972546195 52.9909301091
79 5 2 65.7443896763 58.342482304 53.6712938205
80 5 2 65.020037264 58.1877702867 54.3957438089
81 5 2 64.414853477 57.7509995123 55.1143771548
82 5 2 63.9937317634 57.0757598276 55.77782111
83 5 2 63.8047888053 56.2273768827 56.3417332916
84 5 2 63.8749788119 55.2869578734 56.770843372
85 5 2 64.207636715 54.3439988368 57.042167875
86 5 2 64.7821741996 53.4882273265 57.1471050577
87 5 2 65.5559562728 52.8014239864 57.0922189369
88 5 2 66.4681873305 52.349968463 56.8986409964
89 5 2 67.4454525132 52.1787890784 56.6001441087
90 5 2 68.4084092753 52.3072677341 56.2400642276
91 6 1 55.9752894395 29.026752478 66.8275576738
92 6 1 56.8103077475 28.0019602321 72.1913750028
93 6 2 56.0393259015 28.5890230985 66.4933812087
94 6 2 56.3631149977 27.7472914305 65.9833827464
95 6 2 56.9190246854 26.9304622035 65.6716064737
96 6 2 57.6488460644 26.1988504582 65.5970744663
97 6 2 58.4785186486 25.6050038897 65.7771846193
98 6 2 59.3248807815 25.1889132653 66.2061248754
99 6 2 60.1032495989 24.9743673733 66.8554029788
100 6 2 60.7351396455 24.966784738 67.6764434674
101 6 2 61.1554166143 25.1527197364 68.605015197
102 6 2 61.3182341651 25.5010881302 69.5670858381
103 6 2 61.2012126952 25.9660003112 70.4855697251
104 6 2 60.8074791808 26.4909440167 71.2873540084
105 6 2 60.1653821615 27.0139352708 71.9099626954
106 6 2 59.3259078463 27.4731680584 72.3072511702
107 6 2 58.3580328575 27.8126477783 72.453612152
108 6 2 57.3424371953 27.9872950011 72.3463097304
109 7 1 45.4947262341 5.50942341619 51.6012898022
110 7 1 42.8316419484 2.03577762109 54.9717138168
111 7 2 45.2121171259 5.96704391652 51.4667641256
112 7 2 44.5134056861 6.66904190756 51.1627063093
113 7 2 43.6422851181 7.11969416209 50.8287729137
114 7 2 42.6692928131 7.28203804554 50.511944176
115 7 2 41.6742514986 7.14538946079 50.2576412899
116 7 2 40.7389936105 6.72631667506 50.1055863847
117 7 2 39.9399024851 6.06713016664 50.0861819596
118 7 2 39.3409502224 5.23202613787 50.217739777
119 7 2 38.9878667999 4.30123520288 50.5048117945
120 7 2 38.9039719072 3.36370958155 50.9377752658
121 7 2 39.0880494194 2.50901534244 51.4937098288
122 7 2 39.5144582426 1.819168695 52.1384866349
123 7 2 40.135469432 1.36116043128 52.8298791025
124 7 2 40.885616557 1.18084989433 53.521411757
125 7 2 41.6876627917 1.29878502162 54.1665963463
126 7 2 42.4596408452 1.70832945544 54.7231691204
127 8 1 72.8892690473 66.55236598 7.68179323509
128 8 1 72.6056350545 65.3619709702 2.29472515124
129 8 2 72.4804134132 66.3395361427 7.98988756935
130 8 2 71.5784788749 66.0384808779 8.40138462571
131 8 2 70.5682188644 65.8723122744 8.5601697558
132 8 2 69.5392608417 65.8389481486 8.4436269142
133 8 2 68.5829365409 65.924201544 8.0542354642
134 8 2 67.7839573261 66.1030738339 7.41934419047
135 8 2 67.2126929777 66.3420332797 6.58867853048
136 8 2 66.9187576745 66.602071359 5.62980823373
137 8 2 66.926487794 66.8422582885 4.6219885597
138 8 2 67.2327237168 67.0234736639 3.6489363728
139 8 2 67.8070978175 67.1119721806 2.79119957387
140 8 2 68.5948023921 67.0824594279 2.1188153744
141 8 2 69.5215852344 66.9203974068 1.6849265918
142 8 2 70.5005175257 66.6233296298 1.5209378237
143 8 2 71.4399171645 66.2011050233 1.63365300278
144 8 2 72.2517053447 65.6749802241 2.0046552365
145 9 1 30.0987585538 52.4379195058 50.6296023948
146 9 1 26.1984307407 51.5336616021 46.8233244681
147 9 2 30.1540565718 52.9668518435 50.7863005103
148 9 2 30.2669047961 53.994945079 50.8474526863
149 9 2 30.3676066567 54.9968924595 50.6037098031
150 9 2 30.4287103356 55.8873011523 50.0775076448
151 9 2 30.4263732836 56.5909447778 49.3170274033
152 9 2 30.3425354045 57.0496200931 48.3918040917
153 9 2 30.1665651844 57.2274520621 47.3863886136
154 9 2 29.8962287264 57.114163769 46.3926411742
155 9 2 29.5378933636 56.7260131319 45.5013584683
156 9 2 29.1059472944 56.104311037 44.7939978039
157 9 2 28.6214881361 55.3116559613 44.3352524866
158 9 2 28.1103999338 54.4262282894 44.1671551977
159 9 2 27.6009938989 53.5346643799 44.3052468274
160 9 2 27.1214279176 52.7241598933 44.7371599644
161 9 2 26.697140035 52.0745221401 45.4237461524
162 9 2 26.3485298452 51.6508958581 46.3026441669
163 10 1 37.66387251 66.4570670063 79.2981303742
164 10 1 32.793264611 64.65585128 81.1824848161
165 10 2 37.7029373255 67.0070473737 79.2400173492
166 10 2 37.5736559841 68.0098618117 79.0139652558
167 10 2 37.1844564523 68.9051070145 78.6668200952
168 10 2 36.5610808032 69.6174265796 78.2455676194
169 10 2 35.7506156371 70.0881372877 77.803948264
170 10 2 34.8172002638 70.2805779208 77.3975588513
171 10 2 33.8361805756 70.1834508345 77.0787850886
172 10 2 32.8872414713 69.8118517083 76.8920267507
173 10 2 32.0471437897 69.2058936143 76.8696507594
174 10 2 31.3827277654 68.4270508182 77.0290410249
175 10 2 30.944820719 67.5525555643 77.3710139489
176 10 2 30.7636042833 66.6683585626 77.8797440118
177 10 2 30.8458634283 65.8612948117 78.5242062265
178 10 2 31.1743680287 65.2111688204 79.2610039831
179 10 2 31.7094433442 64.7834806402 80.0383245337
180 10 2 32.3925862659 64.6234557106 80.8006615862
181 11 1 69.7086963225 78.5840047995 7.30348181325
182 11 1 66.331172406 74.2260517924 6.95914354544
183 11 2 69.5434677891 78.9804653563 7.65405298527
184 11 2 69.0313714211 79.7025518579 8.19238225757
185 11 2 68.2907265572 80.3335864918 8.54831832997
186 11 2 67.3816708478 80.8056940271 8.70382461066
187 11 2 66.3796921415 81.0654850132 8.65913314763
188 11 2 65.36874797 81.0789220856 8.43272347815
189 11 2 64.4336130431 80.8344223803 8.05963826829
190 11 2 63.6521522606 80.3439132814 7.58828926762
191 11 2 63.0882235347 79.6417452716 7.0760447076
192 11 2 62.7858573121 78.7815609777 6.58400034061
193 11 2 62.7652433163 77.8314057883 6.17141072544
194 11 2 63.0208903087 76.8675256989 5.89028833261
195 11 2 63.5221265997 75.9674176928 5.7806627467
196 11 2 64.2158956916 75.2027660983 5.86693207671
197 11 2 65.0315922365 74.6329087539 6.15563913365
198 11 2 65.8874975253 74.2994285228 6.63487507077
199 12 1 65.3980863977 24.3497808727 64.3689622462
200 12 1 66.2488632998 27.2000209262 59.7138251524
201 12 2 65.1466038461 23.8604317733 64.3005840824
202 12 2 64.5223895215 23.072852297 64.0485423069
203 12 2 63.7551363482 22.5076430528 63.6419576421
204 12 2 62.9227443264 22.2100926464 63.1015528968
205 12 2 62.109050688 22.2010932956 62.4602482222
206 12 2 61.3961883572 22.4752365608 61.7601605286
207 12 2 60.8570997543 23.0013063099 61.0487646413
208 12 2 60.5488882885 23.7251239849 60.3745660972
209 12 2 60.5076135351 24.574486833 59.7826799948
210 12 2 60.7450045015 25.4657489943 59.3107188735
211 12 2 61.2473905597 26.3114455987 58.9853644314
212 12 2 61.9769474871 27.0282649547 58.8199355593
213 12 2 62.8751450438 27.5446421875 58.81317436
214 12 2 63.8680818471 27.8072821862 58.949360802
215 12 2 64.8732212852 27.7860173104 59.1997455582
216 12 2 65.8069145089 27.4765570905 59.5251704305
217 13 1 63.5287823982 58.8758116254 36.7328209755
218 13 1 62.3737097882 53.5555437043 35.7955122884
219 13 2 63.8451389779 58.9712417714 37.1780099126
220 13 2 64.278529662 59.0127341923 38.1181699549
221 13 2 64.4830240968 58.8611395151 39.1224861856
222 13 2 64.4522492435 58.515503464 40.0987231649
223 13 2 64.2012762304 57.9925581161 40.9572048019
224 13 2 63.7652466593 57.325196817 41.6189880902
225 13 2 63.1961695428 56.5594760401 42.0230585525
226 13 2 62.5581808214 55.7504174625 42.1318915464
227 13 2 61.9216975446 54.9569928858 41.9348725358
228 13 2 61.3569995443 54.2367491143 41.4492645774
229 13 2 60.9278236165 53.6405627175 40.7186348391
230 13 2 60.6855540823 53.2080027668 39.8088835692
231 13 2 60.664539245 52.9637242204 38.8022374648
232 13 2 60.8789606331 52.9152206896 37.7897549282
233 13 2 61.3215403929 53.0521414164 36.8630263369
234 13 2 61.9642046446 53.3472347173 36.1058258254
235 14 1 43.0816616821 26.436061559 5.99868105061
236 14 1 41.5664573573 21.7451815174 3.50513110129
237 14 2 42.6963167783 26.6605142544 6.32809246618
238 14 2 41.8376869334 27.0522560993 6.75557711808
239 14 2 40.8618943952 27.3635034553 6.91179496865
240 14 2 39.8500370488 27.5502867971 6.79052376405
241 14 2 38.8864999905 27.5799811614 6.41083363613
242 14 2 38.0512640514 27.4342798258 5.81534891091
243 14 2 37.4126157584 27.1108629168 5.0663630152
244 14 2 37.0209232 26.6236088605 4.24016059721
245 14 2 36.9040451094 26.0013294012 3.42006438479
246 14 2 37.0647916158 25.2851434876 2.68884054145
247 14 2 37.4806681083 24.5247293909 2.12115475181
248 14 2 38.1059255596 23.7737966629 1.77676664401
249 14 2 38.8757304276 23.085190654 1.69508285927
250 14 2 39.7120740598 22.5060758006 1.89156524195
251 14 2 40.5308829729 22.0736367132 2.35632153371
252 14 2 41.2496819264 21.811688898 3.05500702641
253 15 1 6.70033518328 62.1680636488 75.9528117692
254 15 1 8.417282926 58.2901433749 72.4127812807
255 15 2 6.34510758126 62.5371419077 75.7407358923
256 15 2 5.84308046922 63.244910105 75.1746237401
257 15 2 5.58193839209 63.909927872 74.4242863518
258 15 2 5.57474978229 64.4605164894 73.5466471837
259 15 2 5.81143589246 64.8354271492 72.6102329091
260 15 2 6.25968944633 64.9894236196 71.6889273953
261 15 2 6.8679193606 64.8974054067 70.8552373864
262 15 2 7.56995313431 64.5566955974 70.1736837072
263 15 2 8.29106829542 63.9872848531 69.6949203629
264 15 2 8.95480315442 63.2300093139 69.4511175616
265 15 2 9.489926083 62.3428284941 69.4530294859
266 15 2 9.83692808653 61.3955424269 69.689014078
267 15 2 9.95344688991 60.4634295784 70.1260941819
268 15 2 9.81812814571 59.620385416 70.7129633231
269 15 2 9.43257182584 58.9321870349 71.3846621571
270 15 2 8.82118638843 58.4504977507 72.0684993392
271 16 1 13.700400461 6.5224939987 22.3530116748
272 16 1 17.9872065616 8.38697733774 25.2966465699
273 16 2 13.4595682647 6.90008453566 22.026198536
274 16 2 13.0070351924 7.73499816413 21.6119726765
275 16 2 12.6004157254 8.67880346363 21.4802829772
276 16 2 12.2919510659 9.65542641894 21.6368306319
277 16 2 12.1249358677 10.5858017732 22.0610447699
278 16 2 12.129772044 11.3950796149 22.707957436
279 16 2 12.321197715 12.0194477469 23.5123022995
280 16 2 12.6969438668 12.411947998 24.3944635055
281 16 2 13.2379411664 12.5467563348 25.2677324477
282 16 2 13.9100580805 12.4215366528 26.0462110256
283 16 2 14.6672118732 12.0576537067 26.6526410272
284 16 2 15.4555689246 11.4982257697 27.0254460084
285 16 2 16.2184515209 10.8041945182 27.1243438214
286 16 2 16.901503877 10.0487703611 26.9340182243
287 16 2 17.4576465208 9.31075950659 26.4655149165
288 16 2 17.8513674613 8.66738098666 25.7552347518
289 17 1 42.9832311709 78.9222284092 27.2183226738
290 17 1 42.2294414776 77.0565216255 32.3631191087
291 17 2 42.6872378577 79.3723639501 27.0873740526
292 17 2 41.9547055629 80.0874938485 26.9278883895
293 17 2 41.0491163113 80.590339901 26.9054392015
294 17 2 40.0536960017 80.8450860102 27.0384536301
295 17 2 39.0598583935 80.838529725 27.3311887233
296 17 2 38.1588729873 80.5812856095 27.7733434179
297 17 2 37.4335460535 80.1068177532 28.3409974531
298 17 2 36.9506730624 79.4683896092 28.9987916387
299 17 2 36.7549504553 78.7342091725 29.7031507506
300 17 2 36.8649016836 77.9812120036 30.4062552964
301 17 2 37.2711888455 77.2880487581 31.0604001338
302 17 2 37.9374638109 76.7279163891 31.6223426672
303 17 2 38.8036812564 76.361886441 32.0572442944
304 17 2 39.7915716359 76.2333385414 32.3418458525
305 17 2 40.8117752404 76.3640064637 32.466587628
306 17 2 41.7719870971 76.7519971523 32.4364806993
307 18 1 15.9902637048 73.7780247904 78.6596301023
308 18 1 13.452620122 78.5595938839 79.7618792177
309 18 2 15.8875251105 73.3703206618 79.0210214592
310 18 2 15.753277987 72.7714887764 79.8557837571
311 18 2 15.6889403628 72.4343929987 80.8333711537
312 18 2 15.6817785932 72.3925989758 81.8685774036
313 18 2 15.7138476075 72.6527563889 82.8709444571
314 18 2 15.7636265537 73.1939928532 83.7530074693
315 18 2 15.8079803671 73.9698163791 84.4382669872
316 18 2 15.824268469 74.912352994 84.8681616704
317 18 2 15.7924083956 75.9385332722 85.0074060005
318 18 2 15.6967062604 76.9576638921 84.847206462
319 18 2 15.5272872102 77.8796940893 84.4060630477
320 18 2 15.2809954918 78.6234235437 83.7280830337
321 18 2 14.96168209 79.1239035711 82.8789607194
322 18 2 14.579853721 79.3383570225 81.939989567
323 18 2 14.151715173 79.2500773069 81.0006525206
324 18 2 13.6976922835 78.8699511522 80.1504658743
325 19 1 77.7356192513 65.3816666228 57.7603834666
326 19 1 78.9398041361 67.9722414525 53.0320801899
327 19 2 77.906002366 64.854801235 57.7880248369
328 19 2 78.1164858101 63.8524945768 57.6314103612
329 19 2 78.1845731077 62.9084496713 57.2099921041
330 19 2 78.1210443299 62.1096356461 56.5532499487
331 19 2 77.948676001 61.5297842221 55.7121129228
332 19 2 77.7001650795 61.2226692646 54.7543171533
333 19 2 77.4151487177 61.2172054388 53.7582319003
334 19 2 77.1365914415 61.5148127155 52.8057164076
335 19 2 76.906869048 62.0892869446 51.9746586519
336 19 2 76.7639061654 62.8891882931 51.331876062
337 19 2 76.7377195246 63.8425298489 50.9270252882
338 19 2 76.8476820138 64.8633390349 50.788076132
339 19 2 77.1007568923 65.8594937798 50.918762173
340 19 2 77.4908631072 66.7411191988 51.2982404633
341 19 2 77.9994295658 67.428779449 51.8829913065
342 19 2 78.5970878409 67.8607180944 52.6107849614
343 20 1 47.846825182 34.5092221237 37.7827969027
344 20 1 44.99431127 29.8787560378 38.7523015548
345 20 2 47.5426050017 34.9389384128 37.6090857032
346 20 2 46.8910228308 35.5859569479 37.1292339541
347 20 2 46.1706521303 35.9771976783 36.4956356935
348 20 2 45.4311932056 36.0749779413 35.776546318
349 20 2 44.724086203 35.8683632113 35.0480135106
350 20 2 44.0978224776 35.374163753 34.386945698
351 20 2 43.5935247357 34.6354024103 33.864102053
352 20 2 43.2411988103 33.717393189 33.5376429848
353 20 2 43.0569987096 32.7017880604 33.4478289734
354 20 2 43.0417542219 31.6791346014 33.6133509345
355 20 2 43.1808952834 30.7406228257 34.0296265921
356 20 2 43.4457799998 29.9697734574 34.6692181411
357 20 2 43.7963052788 29.4348252403 35.4843331299
358 20 2 44.1845621199 29.1825151586 36.4111806142
359 20 2 44.5592023913 29.2338184861 37.3757855317
360 20 2 44.8701190753 29.5820369459 38.3007313307
361 21 1 70.0349891486 19.2115757475 17.6347199911
362 21 1 65.2770972822 21.9658788331 18.177187098
363 21 2 70.1692910301 18.8901237025 18.0660124388
364 21 2 70.3773201018 18.4844032411 18.9963698023
365 21 2 70.4985509272 18.3579901905 20.0175322961
366 21 2 70.5047922477 18.5154104522 21.041558623
367 21 2 70.3783337909 18.9353192801 21.9802464551
368 21 2 70.1135605145 19.5724467969 22.7531718401
369 21 2 69.7174644022 20.361724222 23.2950196297
370 21 2 69.2090071631 21.2242147179 23.5615367808
371 21 2 68.617391923 22.0743082709 23.5335659022
372 21 2 67.979401437 22.8275248157 23.2187913995
373 21 2 67.33604544 23.4082143673 22.6510390619
374 21 2 66.7288227187 23.7564523152 21.8871929324
375 21 2 66.1959386086 23.8335013911 21.0020104787
376 21 2 65.7688226792 23.6253424675 20.0813086504
377 21 2 65.4692640133 23.143952364 19.2141418931
378 21 2 65.3074251898 22.4262121917 18.4846850736
379 22 1 60.2747073884 6.85281759458 19.9888672295
380 22 1 56.7128352948 10.8876512519 18.7434052237
381 22 2 60.8076374667 6.97517876872 19.897243746
382 22 2 61.7243936085 7.26909313354 19.5143305262
383 22 2 62.4656322529 7.63950725226 18.8923910887
384 22 2 62.9645348889 8.0710957051 18.0934683275
385 22 2 63.176371285 8.54295719526 17.1957366936
386 22 2 63.0825765301 9.03051964618 16.2863768025
387 22 2 62.6924431758 9.50777988075 15.4536291543
388 22 2 62.0422742447 9.94967374129 14.7787512481
389 22 2 61.1920743076 10.3343606206 14.3286111778
390 22 2 60.2200802265 10.645214175 14.1495927842
391 22 2 59.2156300743 10.8723377709 14.263367892
392 22 2 58.271020208 11.0134665367 14.6649209808
393 22 2 57.4730927025 11.0741737998 15.3230063365
394 22 2 56.8953199275 11.0673630924 16.1829960142
395 22 2 56.5911077374 11.0120920296 17.1718590301
396 22 2 56.5889276706 10.931835258 18.2048179398
397 23 1 34.0655781927 65.3957634979 44.0514328988
398 23 1 33.294557516 60.6688913361 46.8046487901
399 23 2 33.7424476483 65.8160194601 44.2137694799
400 23 2 32.966144595 66.4434485188 44.491503808
401 23 2 32.0282856607 66.8137100538 44.7297831107
402 23 2 31.0138444722 66.8904563667 44.9259184968
403 23 2 30.0147749243 66.664092887 45.0810623806
404 23 2 29.1216298277 66.1526526916 45.2001034422
405 23 2 28.4153072628 65.4001528383 45.2912210374
406 23 2 27.9596769351 64.4725823282 45.3651396715
407 23 2 27.7957586231 63.4518873849 45.4341514889
408 23 2 27.9379833345 62.4285022753 45.5109958775
409 23 2 28.3728779589 61.4931064676 45.607698307
410 23 2 29.0602933053 60.7283594405 45.7344742399
411 23 2 29.937063594 60.2013664922 45.8987980193
412 23 2 30.9227638484 59.9575622724 46.1047216023
413 23 2 31.9270404167 60.0165695347 46.3525052351
414 23 2 32.8578464655 60.3704105759 46.6385937324
415 24 1 82.6415397372 51.2295997131 36.1380669699
416 24 1 79.25327298 49.2333394503 40.0178329946
417 24 2 82.7736202215 51.7649047203 36.1962467169
418 24 2 82.787649233 52.7929282467 36.3243904929
419 24 2 82.5003884632 53.7755863441 36.4834952537
420 24 2 81.9397493094 54.624850836 36.6781322831
421 24 2 81.1585608776 55.2648520163 36.9096341933
422 24 2 80.2297547514 55.6387939707 37.1759734615
423 24 2 79.2397174723 55.714131372 37.4719472324
424 24 2 78.2804166379 55.4855359 37.7896515454
425 24 2 77.4410183011 54.9753819035 38.1192017589
426 24 2 76.7997597224 54.2317070383 38.4496335089
427 24 2 76.4168182532 53.3238337634 38.7699020821
428 24 2 76.3288263306 52.3360507837 39.0698891114
429 24 2 76.5455325289 51.3599303602 39.3413248382
430 24 2 77.0489130031 50.4859817433 39.5785418788
431 24 2 77.7948143141 49.795401496 39.7789917914
432 24 2 78.7169778967 49.3526726447 39.9434773597
433 25 1 17.5460631928 42.049768384 47.2907111523
434 25 1 14.8209799992 38.5773598794 50.6125016072
435 25 2 17.7423494657 42.5049294336 47.5390691723
436 25 2 17.8892648846 43.3732550007 48.0848498795
437 25 2 17.7442841429 44.1889947876 48.7069424737
438 25 2 17.3263152665 44.8708273604 49.365620219
439 25 2 16.6791484201 45.3496365698 50.017821741
440 25 2 15.867464551 45.5748113035 50.6210759552
441 25 2 14.9709398931 45.5188585537 51.137373194
442 25 2 14.0769836916 45.1799093315 51.5366296852
443 25 2 13.2727710838 44.5818890199 51.7994296082
444 25 2 12.6372973182 43.7723366394 51.9187947937
445 25 2 12.2341775488 42.818071793 51.9008207656
446 25 2 12.1058484841 41.7991042383 51.7641211498
447 25 2 12.2697003941 40.801341212 51.5381310922
448 25 2 12.716492034 39.9087572145 51.260424324
449 25 2 13.4111929586 39.1957399588 50.9732884163
450 25 2 14.2961764545 38.7203101295 50.7198703808
451 26 1 8.03595917441 56.1189987997 1.39816239029
452 26 1 5.42031746895 52.7408509497 4.9002370088
453 26 2 7.97032499188 56.6596094901 1.50215192604
454 26 2 7.61934901045 57.6135879859 1.70262861104
455 26 2 7.00104449359 58.4183602801 1.91117378624
456 26 2 6.17215228598 59.0009240436 2.12798518065
457 26 2 5.20860773744 59.3085306611 2.35250707945
458 26 2 4.19861939878 59.3134931261 2.58348097598
459 26 2 3.23462904813 59.0157096376 2.81906028123
460 26 2 2.40488586998 58.4426728795 3.05697863549
461 26 2 1.78540277785 57.646964135 3.29475648097
462 26 2 1.43302804038 56.7014606443 3.52992706691
463 26 2 1.38026371362 55.6926930378 3.76026128726
464 26 2 1.63230316547 54.7129583012 3.98397085779
465 26 2 2.16655771405 53.8519071519 4.19987131338
466 26 2 2.93471552575 53.1883726152 4.40748996887
467 26 2 3.86714510967 52.7831846052 4.60710900303
468 26 2 4.87924204194 52.6736254408 4.79973973877
469 27 1 14.8326344832 22.5975538095 12.5572514474
470 27 1 13.9376779889 26.9149111141 9.22896813035
471 27 2 14.8649857357 22.7212564358 13.0967258627
472 27 2 15.0789368946 23.1146679572 14.0310182621
473 27 2 15.4632246763 23.698169158 14.7960667969
474 27 2 15.9693460421 24.4321639823 15.3238383121
475 27 2 16.5376931478 25.2633392824 15.5679268187
476 27 2 17.1029864394 26.1295241703 15.5077832757
477 27 2 17.6002247097 26.9653567273 15.1505885805
478 27 2 17.9706097849 27.7082415689 14.5305990488
479 27 2 18.1669058209 28.3040552461 13.7060240435
480 27 2 18.1577447243 28.7120794537 12.7537203464
481 27 2 17.93048527 28.9087123946 11.7621868683
482 27 2 17.4923653154 28.8896200207 10.8234982097
483 27 2 16.869842089 28.6701310696 10.0249123069
484 27 2 16.1061806844 28.2838398917 9.44091710464
485 27 2 15.2575105633 27.7795444142 9.12644117878
486 27 2 14.3877095043 27.2167983408 9.11184714349
487 28 1 59.5800051916 66.4476314549 27.0420930585
488 28 1 64.8539957022 64.9190658222 26.4366987561
489 28 2 59.4671534264 66.9661072514 26.8813792895
490 28 2 59.440765468 67.9886775978 26.7167476596
491 28 2 59.6648623203 69.0001639012 26.7279757481
492 28 2 60.1300644285 69.9101019784 26.8984154892
493 28 2 60.8050161383 70.6372834955 27.1969071003
494 28 2 61.6392436795 71.1171578907 27.580619213
495 28 2 62.5677557159 71.3077159853 27.9989528383
496 28 2 63.5169671315 71.193319008 28.3981533285
497 28 2 64.411406117 70.7861240275 28.7262099702
498 28 2 65.180593224 70.1249758677 28.9375966217
499 28 2 65.7654653778 69.2718665061 28.997421299
500 28 2 66.1237593193 68.3062846707 28.8846064869
501 28 2 66.2338637876 67.3179706549 28.5938102983
502 28 2 66.0967893292 66.3987367294 28.1359133728
503 28 2 65.7360761889 65.6340986996 27.5370271358
504 28 2 65.1956486798 65.0954813679 26.8361138112
505 29 1 40.7234141587 80.9266362176 48.5632299046
506 29 1 38.4403253314 75.9302502272 49.1477155782
507 29 2 40.3841402912 81.3164439455 48.3624196306
508 29 2 39.70643186 81.8836000548 47.8215913389
509 29 2 39.0125315435 82.1925063653 47.1169430201
510 29 2 38.3491064119 82.2105692821 46.3213358073
511 29 2 37.760045804 81.9317048081 45.5159214937
512 29 2 37.2824609308 81.3768930845 44.7827457635
513 29 2 36.9433022881 80.5922661065 44.197269947
514 29 2 36.7569031909 79.6449029156 43.8214929224
515 29 2 36.7236733296 78.6167155241 43.6983000832
516 29 2 36.8300614285 77.5969828544 43.8475544496
517 29 2 37.0497904078 76.6742132033 44.2642862072
518 29 2 37.3462524694 75.9280769478 44.9191456925
519 29 2 37.6758457998 75.4221448028 45.7610785356
520 29 2 37.991948759 75.1980935208 46.7219791306
521 29 2 38.2491693183 75.2719071668 47.7228982785
522 29 2 38.4074824222 75.6324202139 48.6812391966
523 30 1 9.99566688499 21.9806362372 16.9288571127
524 30 1 9.51329262463 16.9430918245 19.1443598603
525 30 2 9.83221524578 22.3966877747 17.2568300808
526 30 2 9.33305268994 23.0430258212 17.8944301777
527 30 2 8.6281708391 23.4625381565 18.5273606542
528 30 2 7.7879799423 23.6110444947 19.1151319836
529 30 2 6.89522330646 23.4690660221 19.6213707748
530 30 2 6.03743546512 23.0436008393 20.0171351095
531 30 2 5.29896363969 22.3674861028 20.2835525212
532 30 2 4.7532797156 21.4964050058 20.4135401693
533 30 2 4.45628347637 20.5038114044 20.4124504218
534 30 2 4.44120748771 19.4742346946 20.2975830008
535 30 2 4.71558803803 18.4955751839 20.0966081593
536 30 2 5.26057822583 17.6510922132 19.8450446116
537 30 2 6.03266580444 17.0118152903 19.5830220973
538 30 2 6.967639207 16.6300699404 19.3516236628
539 30 2 7.98644025915 16.5347083739 19.1891410515
540 30 2 9.00237012031 16.7284796851 19.1275845138
541 31 1 83.0879637126 50.7472687413 39.054517981
542 31 1 79.6155479097 52.4385984476 43.0041664941
543 31 2 83.2602487327 51.14508666 38.7089165292
544 31 2 83.352404427 51.93567078 38.0456412557
545 31 2 83.1411970501 52.736467337 37.4230930011
546 31 2 82.6479829577 53.4893855874 36.90996146
547 31 2 81.9198226644 54.1406987675 36.5649632864
548 31 2 81.0251914025 54.6459411438 36.431490227
549 31 2 80.0477377886 54.9739609466 36.5336540798
550 31 2 79.0786594751 55.1097597698 36.874088968
551 31 2 78.2083907282 55.0558596359 37.4337112468
552 31 2 77.5183595863 54.8320731204 38.1734589266
553 31 2 77.0735659116 54.4736974882 39.0378520689
554 31 2 76.9166568268 54.0282974428 39.9600496344
555 31 2 77.0640395437 53.5513697301 40.8679418652
556 31 2 77.5043858896 53.1012847586 41.6907228964
557 31 2 78.1996648401 52.7339662929 42.3653445214
558 31 2 79.0886089451 52.4977941516 42.8422628676
559 32 1 70.5337040102 65.1460787062 42.5142798435
560 32 1 73.191377413 69.3206827404 44.9693652397
561 32 2 70.7965730448 64.9258052529 42.0786641132
562 32 2 71.3042301577 64.7383213276 41.1951574383
563 32 2 71.8078488798 64.8567384953 40.2974962726
564 32 2 72.2798277641 65.2707744413 39.4733238517
565 32 2 72.6954492505 65.9432019891 38.8035851085
566 32 2 73.0351326048 66.8132422584 38.3551487587
567 32 2 73.2862186508 67.8021044975 38.1747123967
568 32 2 73.44412362 68.8201676497 38.284546134
569 32 2 73.51275695 69.7751490734 38.6804627385
570 32 2 73.5041649499 70.5805158574 39.3321992895
571 32 2 73.4374328109 71.1633720656 40.1861755616
572 32 2 73.3369450428 71.4711030057 41.1703777198
573 32 2 73.2301628906 71.4761709186 42.2009221872
574 32 2 73.1451213156 71.1786249709 43.1897014097
575 32 2 73.1078736836 70.6060967741 44.0524146233
576 32 2 73.1401170703 69.8112818363 44.7162516439
577 33 1 22.9161159975 80.1735521387 32.3470029664
578 33 1 21.313564595 75.0446387183 33.6292148011
579 33 2 22.7763822714 80.5614674779 32.7176480304
580 33 2 22.3014152477 81.1904500422 33.3901339197
581 33 2 21.5896881213 81.6367671237 33.9965129856
582 33 2 20.7086529448 81.8503912465 34.498102223
583 33 2 19.741193747 81.8025042763 34.8657699396
584 33 2 18.7780718752 81.4881241159 35.0825910317
585 33 2 17.9096533412 80.9265588099 35.1453896624
586 33 2 17.2176722005 80.1596466684 35.0650287304
587 33 2 16.7677807118 79.2479428169 34.8654197458
588 33 2 16.6035653091 78.265199758 34.5813433601
589 33 2 16.7425738149 77.2916450283 34.2552792028
590 33 2 17.1747160025 76.4066686727 33.9335339762
591 33 2 17.8631832939 75.681587054 33.6620207238
592 33 2 18.7478037628 75.1731425574 33.482073979
593 33 2 19.7505266451 74.918331673 33.4266822326
594 33 2 20.7825364575 74.9310328653 33.5174811204