LAMMPS input file for bananas

648 atoms

2 atom types

0 85.0126855346 xlo xhi
0 85.0126855346 ylo yhi
0 85.0126855346 zlo zhi

Masses

 1 1
 2 1

Atoms

1 1 1 8.45112412762 51.6620590636 17.4327420149
2 1 1 4.492297222 48.1499912564 19.0173745624
3 1 2 8.37825613262 52.1862136397 17.5980714546
4 1 2 8.02725631228 53.136397898 17.8157845974
5 1 2 7.4200104951 53.9702530417 17.9126769508
6 1 2 6.60465862528 54.6093326617 17.8975581296
7 1 2 5.6483089575 54.9929436178 17.7894472675
8 1 2 4.63092131888 55.0836780553 17.6158394744
9 1 2 3.63801898441 54.8708230316 17.4101997306
10 1 2 2.75289345909 54.3713369719 17.2089126426
11 1 2 2.04901267981 53.6283039544 17.0479660844
12 1 2 1.58332460928 52.7070067114 16.9596709982
13 1 2 1.39106658144 51.6889762831 16.9697163391
14 1 2 1.48255351266 50.6645606807 17.0948275946
15 1 2 1.84223772467 49.7246899073 17.3412423021
16 1 2 2.43012607389 48.9525879305 17.7041415133
17 1 2 3.18542521957 48.4161870407 18.1680890289
18 1 2 4.03208277431 48.1619360041 18.7084383664
19 2 1 10.4501590698 21.9432387921 79.7217823347
20 2 1 15.1600830695 20.5440899908 82.2470525402
21 2 2 10.3618915834 22.4888086058 79.6776913226
22 2 2 10.2449928358 23.5075900201 79.8255734507
23 2 2 10.214661732 24.4491315577 80.2568849023
24 2 2 10.2913636827 25.2341469256 80.9286867288
25 2 2 10.4858083216 25.7976167728 81.7761199266
26 2 2 10.7979733513 26.0947150305 82.7183171622
27 2 2 11.2171065754 26.1048946882 83.665773613
28 2 2 11.7227059323 25.8337605989 84.5285050933
29 2 2 12.2863882037 25.3125586119 85.2242498719
30 2 2 12.8744760686 24.5953275969 85.6859666091
31 2 2 13.4510677018 23.7539739456 85.8679449957
32 2 2 13.9813091286 22.8717174963 85.7499721255
33 2 2 14.4345710717 22.0355062678 85.3391748476
34 2 2 14.7872407282 21.3280913804 84.6693701734
35 2 2 15.0248740131 20.8204845119 83.797982946
36 2 2 15.1435120993 20.5654853733 82.8008117195
37 3 1 75.3087053175 24.5140297652 28.8692203581
38 3 1 79.1292944554 22.4622922266 32.2914218095
39 3 2 74.8133490529 24.2665566646 28.8968033899
40 3 2 74.0145268169 23.6073670172 28.9251239709
41 3 2 73.4428207344 22.7433868596 28.9369752831
42 3 2 73.1486950952 21.7500253043 28.9501259447
43 3 2 73.1573134741 20.7144842321 28.9822261417
44 3 2 73.4662451375 19.7278100744 29.0491988606
45 3 2 74.0456865987 18.8765951738 29.1637885507
46 3 2 74.8411781259 18.2350851234 29.3343995017
47 3 2 75.7785676014 17.8584114802 29.5643298149
48 3 2 76.7707692885 17.7775666702 29.8514707906
49 3 2 77.7257014642 17.9965791119 30.18849913
50 3 2 78.5546794215 18.4921460369 30.5635444342
51 3 2 79.1804988441 19.2157574749 30.96127116
52 3 2 79.544472773 20.0981178074 31.3642764128
53 3 2 79.611780766 21.0554618789 31.7546761748
54 3 2 79.3746426883 21.9971899661 32.1157353846
55 4 1 36.698728058 68.2242287774 65.9738468278
56 4 1 31.5434743286 69.6653827216 64.6084072079
57 4 2 37.0927742525 68.572977519 65.7992515817
58 4 2 37.7205713507 69.2011253576 65.2656308293
59 4 2 38.1501236472 69.7626840812 64.5082758031
60 4 2 38.3337685574 70.2235172389 63.5986839392
61 4 2 38.246257298 70.5586692459 62.6222286546
62 4 2 37.8870562457 70.7546400185 61.6703777883
63 4 2 37.2803955758 70.8106154702 60.8323565526
64 4 2 36.4730607463 70.7385417142 60.1870148928
65 4 2 35.5301281283 70.5620362065 59.7956405261
66 4 2 34.5290334691 70.3142350782 59.6963727298
67 4 2 33.5525138306 70.0347728657 59.9007260478
68 4 2 32.6810663272 69.7661699286 60.3925407712
69 4 2 31.9856110289 69.5499568325 61.129455852
70 4 2 31.5210267869 69.4228889491 62.0467700001
71 4 2 31.3211491723 69.4135963021 63.0633390322
72 4 2 31.3956864549 69.5399740175 64.0889719479
73 5 1 74.1373250442 40.8052242994 46.9811736352
74 5 1 70.676758137 38.4136979363 50.5621049942
75 5 2 74.5571916615 41.0837102974 47.212558943
76 5 2 75.1705852569 41.7036929199 47.7718619521
77 5 2 75.5166160272 42.3933886502 48.4632609084
78 5 2 75.5681651969 43.0786453011 49.2386421158
79 5 2 75.3249552015 43.6857152957 50.0422371201
80 5 2 74.8135749865 44.147977562 50.8157058551
81 5 2 74.0850564962 44.4120098652 51.5034541836
82 5 2 73.2102232483 44.4424581018 52.0577011542
83 5 2 72.2732349596 44.2252587319 52.4428341075
84 5 2 71.3639166127 43.7689206328 52.6386546748
85 5 2 70.5695711492 43.1037495379 52.6422198054
86 5 2 69.9670220392 42.27908575 52.4681100178
87 5 2 69.6156110284 41.3588069044 52.1471004244
88 5 2 69.5517892954 40.4155056938 51.7233556622
89 5 2 69.7857950252 39.5238732374 51.2504044043
90 5 2 70.3007202255 38.7538911859 50.7862603645
91 6 1 10.374837877 57.8766974302 9.88900334057
92 6 1 6.88698704003 55.3936623648 13.3800525331
93 6 2 10.4931865605 58.4040297911 10.0126793622
94 6 2 10.4804523939 59.4108081607 10.2569848402
95 6 2 10.166517323 60.3638846843 10.5149381743
96 6 2 9.58097499022 61.1757702838 10.7822057576
97 6 2 8.77817531403 61.7718450565 11.0536050142
98 6 2 7.83227063897 62.0971596797 11.3235767771
99 6 2 6.83045694777 62.1214438948 11.5866919918
100 6 2 5.86502618055 61.8418655601 11.8381465596
101 6 2 5.02495407116 61.2832887934 12.0741992187
102 6 2 4.38779024683 60.4960076737 12.2925125501
103 6 2 4.01258978694 59.5511620705 12.4923660271
104 6 2 3.93453051037 58.534253435 12.6747216894
105 6 2 4.16170661133 57.5373515711 12.8421364557
106 6 2 4.67439089519 56.6507027188 12.9985290676
107 6 2 5.42683285953 55.954503851 13.1488229063
108 6 2 6.35142873019 55.5115929334 13.2984972402
109 7 1 34.7533590841 38.2152202074 70.1066507471
110 7 1 35.283639334 32.9588507143 68.491914338
111 7 2 35.1479237576 38.3942612521 70.452547568
112 7 2 35.8322143026 38.5330274267 71.2180150134
113 7 2 36.4060215594 38.399679929 72.0703140737
114 7 2 36.8326725443 37.9977564612 72.9246421572
115 7 2 37.0889071745 37.3552747075 73.6960117325
116 7 2 37.1669983625 36.5221785967 74.3069967141
117 7 2 37.0754563195 35.565786047 74.6947896438
118 7 2 36.8382528721 34.5646531172 74.8169264223
119 7 2 36.4926364948 33.6014138324 74.6551567986
120 7 2 36.0857372106 32.7552483132 74.2171078312
121 7 2 35.6702708161 32.0946657193 73.5355887025
122 7 2 35.2997339768 31.6712598227 72.6656002494
123 7 2 35.0235281493 31.5150063736 71.6793217838
124 7 2 34.8824567709 31.6315308904 70.6595321416
125 7 2 34.9050061347 32.0015959092 69.6920646128
126 7 2 35.1047489407 32.5828544268 68.8579834666
127 8 1 55.3314788129 6.8295749712 3.66058811132
128 8 1 52.9557189316 3.06939011302 6.9369833683
129 8 2 55.227305425 7.35691147214 3.79640308871
130 8 2 54.8088839664 8.26975995075 4.0515131615
131 8 2 54.1344192314 9.01459882118 4.30402531868
132 8 2 53.2657050863 9.5227562646 4.55011830515
133 8 2 52.2822407119 9.74713334163 4.78655595607
134 8 2 51.2739844657 9.66649693483 5.01098216463
135 8 2 50.3331544181 9.28741509057 5.22213563489
136 8 2 49.5458229216 8.64365835918 5.41996484553
137 8 2 48.9840713461 7.79312169952 5.60563274587
138 8 2 48.6994200547 6.81254750826 5.78141075618
139 8 2 48.7181324601 5.7905307555 5.95047173375
140 8 2 49.0388211849 4.81944379006 6.11660077547
141 8 2 49.6325745174 3.98701684676 6.28385021634
142 8 2 50.4455916365 3.36834167003 6.45617026997
143 8 2 51.4040864132 3.01902710207 6.63704897717
144 8 2 52.4210128189 2.97013048552 6.82919428035
145 9 1 70.3675532021 74.435452827 59.7844026604
146 9 1 72.167254121 70.4741852874 56.3803716466
147 9 2 69.816971796 74.4588292614 59.8451911928
148 9 2 68.7889199758 74.5008418075 59.7235589105
149 9 2 67.8405132114 74.5216071675 59.3069734809
150 9 2 67.0534872652 74.5006056691 58.6334758133
151 9 2 66.4948684695 74.4211245776 57.7645236809
152 9 2 66.2108644551 74.2717814169 56.7793900091
153 9 2 66.2226524497 74.0475614516 55.7679373599
154 9 2 66.5244490298 73.7502747673 54.8224271999
155 9 2 67.0840372644 73.3883912853 54.0291105139
156 9 2 67.8457032025 72.9762687527 53.4603662584
157 9 2 68.7353140502 72.5328440717 53.1681042131
158 9 2 69.6670751772 72.0799072515 53.1790335433
159 9 2 70.551350068 71.6401153076 53.4922283306
160 9 2 71.3028304504 71.2349271349 54.0792119682
161 9 2 71.8483119168 70.8826475874 54.8865527273
162 9 2 72.1333663104 70.5967590389 55.8407339165
163 10 1 62.091407947 25.2378519753 60.4480567783
164 10 1 59.6824335055 21.6221046764 63.8599777433
165 10 2 61.9736097621 25.7698476556 60.5504568362
166 10 2 61.5311331904 26.687204781 60.7405105108
167 10 2 60.8358729566 27.4316688854 60.9298155968
168 10 2 59.950933565 27.9356906876 61.1203262457
169 10 2 58.9567082685 28.1536365795 61.3138867249
170 10 2 57.9435514379 28.0659480075 61.5120633182
171 10 2 57.0035430029 27.6809241826 61.7160015628
172 10 2 56.2220956123 27.0339656296 61.9263218367
173 10 2 55.6701694997 26.1843475233 62.1430628131
174 10 2 55.3978046475 25.2098169153 62.3656779354
175 10 2 55.4295597765 24.199506298 62.593085234
176 10 2 55.762273884 23.2458094158 62.8237659457
177 10 2 56.3653543608 22.4359598226 63.055902944
178 10 2 57.1835654258 21.8440797762 63.287546366
179 10 2 58.1420627198 21.524424193 63.516791337
180 10 2 59.1532151687 21.5064354571 63.7419515945
181 11 1 7.03609763226 47.5749220508 47.3009486967
182 11 1 4.31683017679 44.4883872667 50.9883432503
183 11 2 6.98919049206 48.1224115038 47.3746820481
184 11 2 6.67144551153 49.0975009715 47.5219527801
185 11 2 6.08147286902 49.9332776193 47.6858420332
186 11 2 5.27349654075 50.5549693278 47.8705680024
187 11 2 4.32161095618 50.9073172477 48.0784496717
188 11 2 3.31302748889 50.959612496 48.309695445
189 11 2 2.34012537291 50.7084951888 48.5623841507
190 11 2 1.49203158246 50.1782606859 48.8326401508
191 11 2 0.846497146481 49.418645133 49.1149865959
192 11 2 0.462810350149 48.500292146 49.4028446245
193 11 2 0.376392766138 47.5083138331 49.6891330091
194 11 2 0.595570672952 46.5345330546 49.966913591
195 11 2 1.10081613689 45.6691140139 50.2300236751
196 11 2 1.84652693101 44.9923440317 50.4736377429
197 11 2 2.76518305624 44.5673155714 50.6947072856
198 11 2 3.7735010088 44.4341755294 50.8922386676
199 12 1 54.9870659513 36.7154617878 22.9371644183
200 12 1 57.9665849631 40.950258578 21.0118193413
201 12 2 54.9032440823 36.7188857005 23.4852006937
202 12 2 54.979652655 36.7561588641 24.517781176
203 12 2 55.3497199558 36.8462376137 25.4813090806
204 12 2 55.9771552977 36.9996408075 26.2913969542
205 12 2 56.8022095849 37.2211154499 26.8776429922
206 12 2 57.7471212828 37.5092040145 27.1900479752
207 12 2 58.7232041741 37.8563772941 27.2035725638
208 12 2 59.6389308705 38.2497206675 26.9204195679
209 12 2 60.4082752899 38.6721112331 26.3698331662
210 12 2 60.958553703 39.1037785151 25.6054333776
211 12 2 61.2370496618 39.52410649 24.7003287396
212 12 2 61.2158189625 39.9135126817 23.7404526609
213 12 2 60.8942366851 40.255233052 22.8167308204
214 12 2 60.2990541532 40.5368499979 22.016793535
215 12 2 59.4819606222 40.7514241829 21.4169884901
216 12 2 58.5148719421 40.8981270391 21.0754218523
217 13 1 6.6574801018 82.3059695679 64.8951664842
218 13 1 2.13317305526 79.6934208845 63.099831923
219 13 2 6.87475022564 82.6695093292 64.5373758705
220 13 2 7.26573217847 83.1688501608 63.7180823592
221 13 2 7.59253468425 83.4013969398 62.7627959471
222 13 2 7.80959005456 83.3537012154 61.7508364147
223 13 2 7.88133375905 83.0378578922 60.7666891456
224 13 2 7.78544603733 82.4904028116 59.8923045102
225 13 2 7.51488628547 81.7689826076 59.199628308
226 13 2 7.07853478823 80.9471003703 58.7440441005
227 13 2 6.50038330483 80.1074160356 58.5593251479
228 13 2 5.81734828423 79.334212153 58.6545560659
229 13 2 5.0759060295 78.7057117565 59.013304788
230 13 2 4.32785650696 78.286948544 59.5951203042
231 13 2 3.62560191776 78.1238392298 60.3392196623
232 13 2 3.01737037725 78.2389983586 61.1700281717
233 13 2 2.54282005121 78.6296770502 62.0040678345
234 13 2 2.22942442002 79.2680135529 62.7575661417
235 14 1 62.7717281075 76.2194882143 64.8501020051
236 14 1 60.7206559656 73.2463204324 69.029978495
237 14 2 62.4324206232 76.6115286968 64.653744476
238 14 2 61.6429202622 77.1677617394 64.2785858516
239 14 2 60.7084722483 77.4562456633 63.9364836066
240 14 2 59.706007657 77.4571366898 63.6747318912
241 14 2 58.7186570934 77.1768043645 63.5333011195
242 14 2 57.8281735593 76.6472509896 63.5411947734
243 14 2 57.1074808855 75.9231947001 63.7138058123
244 14 2 56.6140269198 75.0770820517 64.0515136462
245 14 2 56.3845473092 74.1924847108 64.5396495535
246 14 2 56.4317171437 73.356482121 65.149833696
247 14 2 56.7429956557 72.651724444 65.8425618648
248 14 2 57.2817692777 72.1488992186 66.5708061838
249 14 2 57.9906888709 71.9002883802 67.2843015745
250 14 2 58.796896946 71.9350029024 67.9341272841
251 14 2 59.6186684285 72.2563294094 68.4771658808
252 14 2 60.3728596811 72.8414306092 68.8800332929
253 15 1 56.8901439123 36.7388969326 82.0610776697
254 15 1 51.6518587416 35.7942920986 83.5396179093
255 15 2 57.0288601015 36.5495415016 81.5587989347
256 15 2 57.1917892077 35.9958222563 80.6983925685
257 15 2 57.203437769 35.2306981603 79.9998945801
258 15 2 57.0468112686 34.3275828632 79.5168822502
259 15 2 56.7202530117 33.3724675442 79.2832919178
260 15 2 56.2375951289 32.4560830452 79.3103257733
261 15 2 55.6268978144 31.6656299976 79.5854308091
262 15 2 54.9278917146 31.0768307173 80.0734429925
263 15 2 54.1883565855 30.7470273186 80.7197923734
264 15 2 53.4597662957 30.7099551332 81.4554769892
265 15 2 52.7925971212 30.9726678252 82.2033522096
266 15 2 52.2317269674 31.5148944685 82.8851622631
267 15 2 51.812344868 32.2908871871 83.4286730418
268 15 2 51.5567435988 33.2335909523 83.7742560468
269 15 2 51.4722877505 34.2607554691 83.8803233669
270 15 2 51.5507424664 35.2824320705 83.7271183054
271 16 1 7.31161849406 28.5052218011 59.4982624454
272 16 1 4.98321969366 24.0532337165 57.2012312783
273 16 2 7.66543856225 28.3969895291 59.9111531364
274 16 2 8.14926985851 28.0636164107 60.7645110049
275 16 2 8.37181435302 27.573736632 61.6499158624
276 16 2 8.32151180816 26.9561256045 62.4802629488
277 16 2 8.01167126471 26.2512011015 63.1734658728
278 16 2 7.47925795834 25.5073392863 63.6599385671
279 16 2 6.78152403715 24.7764653542 63.8889378721
280 16 2 5.99079018145 24.1093206894 63.8331886396
281 16 2 5.187853767 23.5508379241 63.4913697894
282 16 2 4.45462440016 23.1360454485 62.8882347224
283 16 2 3.86665807624 22.886874667 62.0723551144
284 16 2 3.48627045242 22.8101610094 61.1116937373
285 16 2 3.35685694218 22.8970208994 60.0874098342
286 16 2 3.49893733935 23.1236614691 59.0864616717
287 16 2 3.90828549373 23.4535492154 58.1936805257
288 16 2 4.5563145134 23.8407399307 57.484038538
289 17 1 80.5387337769 65.8372064333 2.33222805475
290 17 1 81.2240656574 65.2557204654 7.78293308658
291 17 2 80.0799282983 65.6022312865 2.12810602919
292 17 2 79.2984239756 64.9747791769 1.86541827752
293 17 2 78.6672260408 64.1566925445 1.78943511999
294 17 2 78.2311228407 63.2261264864 1.92100571511
295 17 2 78.0171203585 62.2714882985 2.26206125158
296 17 2 78.0319806905 61.383379387 2.7954389256
297 17 2 78.2616056994 60.6463371926 3.48644628459
298 17 2 78.6723220213 60.1311298283 4.28602335145
299 17 2 79.2139503033 59.8883057553 5.13521431042
300 17 2 79.8243789174 59.9435864258 5.97054117207
301 17 2 80.4352252689 60.2955218413 6.72978962238
302 17 2 80.9780686876 60.9156227165 7.3576796912
303 17 2 81.390686789 61.7509572009 7.81090437374
304 17 2 81.6227268779 62.7289754758 8.06207694836
305 17 2 81.6402954625 63.7641224765 8.10222720298
306 17 2 81.4290475555 64.7656360076 7.94161904602
307 18 1 11.3667256154 72.8221488951 53.2328070368
308 18 1 16.0529843915 69.9369679604 53.7151976654
309 18 2 11.2019834784 73.0791956411 53.6955905572
310 18 2 10.9263208322 73.3477326629 54.6575406518
311 18 2 10.7286236353 73.3252263008 55.6743293679
312 18 2 10.6436550115 73.0196016533 56.6606477339
313 18 2 10.6959031765 72.4645892939 57.533964069
314 18 2 10.8973494026 71.7166508193 58.2220465259
315 18 2 11.2463759575 70.8498325263 58.6695468299
316 18 2 11.7279135562 69.9490162891 58.8430451266
317 18 2 12.3148148866 69.1021828038 58.7340961122
318 18 2 12.9703290137 68.3923923829 58.3599988004
319 18 2 13.6514511298 67.8902142298 57.7622197636
320 18 2 14.3128423271 67.6472942448 57.0026135655
321 18 2 14.9109621186 67.6916476389 56.1577848831
322 18 2 15.4080370367 68.0251054224 55.312106195
323 18 2 15.7755035839 68.6231475135 54.5500274555
324 18 2 15.9966117194 69.4371376776 53.9483787071
325 19 1 11.9080663315 73.3865491858 63.5455026298
326 19 1 13.578579499 68.4633457037 61.6774971983
327 19 2 11.4371420304 73.5740831107 63.3209076215
328 19 2 10.6650354708 73.87379453 62.6984330943
329 19 2 10.086055761 74.0700883918 61.8619516381
330 19 2 9.74266983162 74.1289269255 60.8862087716
331 19 2 9.65587086975 74.0288010462 59.8586433188
332 19 2 9.82326484633 73.7626908503 58.8714175942
333 19 2 10.2192887253 73.338705461 58.0130170535
334 19 2 10.797540466 72.7793439036 57.3601850816
335 19 2 11.4950084454 72.119444379 56.9709280375
336 19 2 12.2378147989 71.4030088554 56.8792281302
337 19 2 12.94794919 70.679192406 57.0919460308
338 19 2 13.5503792447 69.9978228558 57.588195541
339 19 2 13.9798895511 69.4048591082 58.321247314
340 19 2 14.1870258702 68.9382021141 59.2227881097
341 19 2 14.1426027577 68.6242403015 60.209147364
342 19 2 13.8403637391 68.4754443405 61.1889235368
343 20 1 35.0820027047 7.98895814886 0.0889496174742
344 20 1 32.9334176647 5.53114890213 4.54548942927
345 20 2 35.0787382628 8.54317820086 0.103477708238
346 20 2 34.8460759419 9.5493615847 0.186623686676
347 20 2 34.341975257 10.4394414857 0.351214939537
348 20 2 33.6164510429 11.1357296629 0.600709228475
349 20 2 32.7397002975 11.5782014732 0.930825630329
350 20 2 31.7957039129 11.7299669568 1.32993473183
351 20 2 30.8745720412 11.5806332587 1.78011861954
352 20 2 30.0643307955 11.1472519095 2.25880404977
353 20 2 29.4428989046 10.472764624 2.74081993939
354 20 2 29.0709856295 9.62208927855 3.20069164284
355 20 2 28.9865572758 8.6762028205 3.61496289789
356 20 2 29.2013766674 7.72476043549 3.96433380135
357 20 2 29.6999309957 6.85792371706 4.23541994358
358 20 2 30.440845771 6.15814267839 4.42197236171
359 20 2 31.3606559969 5.69264065395 4.52544711587
360 20 2 32.3795908346 5.50728707224 4.55487257322
361 21 1 67.9998279602 36.0717675416 72.8778630126
362 21 1 71.6386420733 40.2274731973 72.7934034678
363 21 2 68.1218361536 35.6615838406 73.2303469417
364 21 2 68.5601440523 34.903414256 73.7839849806
365 21 2 69.2417715795 34.2251234964 74.169673418
366 21 2 70.1117295511 33.6982472781 74.3672198415
367 21 2 71.0978629662 33.3805202866 74.3735804803
368 21 2 72.1174277427 33.3106138144 74.2031376371
369 21 2 73.0846326194 33.504610976 73.8863887793
370 21 2 73.9184588 33.9545407751 73.4671667764
371 21 2 74.5500445997 34.6291046394 72.9986446513
372 21 2 74.928962004 35.4765292022 72.5384890013
373 21 2 75.0278130475 36.429285306 72.1436038418
374 21 2 74.8447270646 37.4102431047 71.8649439574
375 21 2 74.4035311965 38.3397022434 71.7428705097
376 21 2 73.7515786104 39.1426563322 71.8034722249
377 21 2 72.955432385 39.7556295785 72.0561874764
378 21 2 72.094798464 40.1324624357 72.4929440023
379 22 1 56.0659504229 71.8034732787 57.5247522219
380 22 1 56.5121951596 68.9862830953 62.25574537
381 22 2 56.0270193348 72.353432415 57.5831551918
382 22 2 55.7852615775 73.3259284834 57.8463178694
383 22 2 55.3541675446 74.1515300639 58.3001790555
384 22 2 54.7851600983 74.7582304156 58.9179129953
385 22 2 54.1422325398 75.0939750596 59.6577573706
386 22 2 53.4961157909 75.1314064056 60.4668198233
387 22 2 52.9178314596 74.8703573229 61.2858989524
388 22 2 52.4722184103 74.3378663743 62.0548803639
389 22 2 52.2120228748 73.5857133231 62.7182159365
390 22 2 52.1730907739 72.6856995461 63.2299868852
391 22 2 52.3711004577 71.7231035301 63.558089135
392 22 2 52.8001336663 70.7889079658 63.687159522
393 22 2 53.4332149624 69.9715069185 63.6199761048
394 22 2 54.2247704714 69.3486489456 63.3772049514
395 22 2 55.1147818175 68.980350523 62.9955164829
396 22 2 56.0342566385 68.9034257042 62.5242430624
397 23 1 52.2921313199 59.4894611317 62.0656929182
398 23 1 54.198526714 58.3466482249 67.1231256981
399 23 2 52.3699352113 60.0126094795 61.8994282232
400 23 2 52.4188517909 61.0424292865 61.7968205016
401 23 2 52.3535233664 62.0604246494 61.9781148732
402 23 2 52.197317111 62.9776276053 62.4339529527
403 23 2 51.9818834695 63.7142571496 63.1299524295
404 23 2 51.7442713044 64.2069910618 64.0098409236
405 23 2 51.5235509916 64.4147375561 65.0005850625
406 23 2 51.3572532595 64.3223806885 66.019047278
407 23 2 51.277948364 63.9421581339 66.9795635734
408 23 2 51.3102773964 63.3125457555 67.8017515676
409 23 2 51.4687063137 62.4947506323 68.4178371345
410 23 2 51.7562074055 61.5671321974 68.7788318334
411 23 2 52.1639883779 60.6180599854 68.8589980744
412 23 2 52.6722937469 59.7378589853 68.658195031
413 23 2 53.2522054989 59.010576759 68.2018914758
414 23 2 53.8682788896 58.5063227313 67.5388443704
415 24 1 61.4567462676 71.0257448245 70.8932487073
416 24 1 62.2270531143 72.3127519465 65.5764610407
417 24 2 61.1267587028 70.5892510328 70.9824841542
418 24 2 60.3647245116 69.8876059559 71.0036522581
419 24 2 59.479798908 69.3801595324 70.8223932868
420 24 2 58.5577276917 69.1014343429 70.4408871244
421 24 2 57.6876423854 69.0651056388 69.8795656513
422 24 2 56.9539361353 69.2627548797 69.1752504326
423 24 2 56.428571501 69.6646370609 68.3777965313
424 24 2 56.1645212608 70.222391891 67.5455483524
425 24 2 56.1909400842 70.8734517034 66.7400217062
426 24 2 56.5105071622 71.5467443316 66.0202968069
427 24 2 57.0991820056 72.1691711474 65.4376332686
428 24 2 57.9083956718 72.6722698055 65.0307979287
429 24 2 58.869477694 72.9984544032 64.8225313544
430 24 2 59.8999152106 73.1062642817 64.8174751006
431 24 2 60.910873792 72.9741430538 65.0017486445
432 24 2 61.8152944616 72.6024034118 65.3442145583
433 25 1 72.0101365019 35.1868377369 60.2670002312
434 25 1 68.0792579297 32.943005159 63.4342387878
435 25 2 72.0881430931 35.7306428169 60.3416500453
436 25 2 72.0004772373 36.7568805541 60.4539034002
437 25 2 71.6155426841 37.7151205556 60.5378766127
438 25 2 70.9662322396 38.5197011286 60.6049292732
439 25 2 70.1095358656 39.0989662265 60.6679632351
440 25 2 69.1213461974 39.4017967061 60.7402466455
441 25 2 68.0895411323 39.4022697006 60.8342045889
442 25 2 67.1059739947 39.1020214201 60.9602865742
443 25 2 66.2581013506 38.530098015 61.1260140895
444 25 2 65.6210115759 37.7403080971 61.335295039
445 25 2 65.250580751 36.8063182289 61.5880675478
446 25 2 65.178379706 35.8149384126 61.8803056015
447 25 2 65.4087964235 34.8582095908 62.2043860068
448 25 2 65.918636086 34.0250143608 62.5497832251
449 25 2 66.6592352213 33.392975563 62.9040287474
450 25 2 67.560897248 33.0213811666 63.2538475654
451 26 1 28.3158346872 55.3183694633 76.5289440552
452 26 1 25.7745202138 52.6558293328 80.6484818767
453 26 2 28.3012671334 55.8714755931 76.564200027
454 26 2 28.0435643062 56.8702385219 76.6617288742
455 26 2 27.5097236459 57.746002563 76.808362789
456 26 2 26.7505339513 58.4217038944 77.0096305942
457 26 2 25.8373239835 58.8385138759 77.2660813797
458 26 2 24.8554610399 58.9612011213 77.5732344539
459 26 2 23.8965699531 58.7813427462 77.9219877473
460 26 2 23.0501817323 58.3180920906 78.2994474417
461 26 2 22.3955730511 57.6164329434 78.690103207
462 26 2 21.9945403909 56.7430793905 79.0772419266
463 26 2 21.8857674563 55.7803950037 79.4444710531
464 26 2 22.0812992592 54.8188856219 79.7772127454
465 26 2 22.5654442478 53.948949985 80.0640325999
466 26 2 23.29620455 53.2526401312 80.2976818657
467 26 2 24.209103967 52.7961825725 80.4757581489
468 26 2 25.2230648065 52.6239419252 80.6009243845
469 27 1 38.3247790367 56.2804502746 67.9131417271
470 27 1 34.5400027265 52.451915752 69.1524087495
471 27 2 38.3357870917 56.7171334903 68.2545625524
472 27 2 38.1248168499 57.5374273716 68.8512697809
473 27 2 37.6280552108 58.2903890849 69.3609035155
474 27 2 36.887543558 58.8991042628 69.7540425943
475 27 2 35.9675404372 59.2998062241 70.0118840324
476 27 2 34.9486645619 59.4476881362 70.1279568628
477 27 2 33.9205466327 59.3209870384 70.1087119483
478 27 2 32.9736597389 58.9229674774 69.9729340026
479 27 2 32.191072978 58.2816239525 69.7500294136
480 27 2 31.6408799292 57.4471292922 69.47734593
481 27 2 31.3699921065 56.4872615346 69.1967685135
482 27 2 31.3998630987 55.4812261406 68.9509016368
483 27 2 31.7245331326 54.5124366277 68.7791859997
484 27 2 32.3111722903 53.660911651 68.7143036146
485 27 2 33.1030728683 52.9959815164 68.7791989287
486 27 2 34.0248181334 52.5699689087 68.9849874985
487 28 1 51.936383302 13.6676900785 16.5123334705
488 28 1 47.698325077 13.6886817918 20.0558363831
489 28 2 51.8097787946 13.8244381307 15.995823127
490 28 2 51.40069225 13.9590634636 15.0534992815
491 28 2 50.7903151637 13.8897081504 14.2191853931
492 28 2 50.0216704302 13.6368315399 13.5721238005
493 28 2 49.1522066167 13.2376204568 13.1744892958
494 28 2 48.2485616803 12.7425997217 13.0657220589
495 28 2 47.3804890959 12.2110269488 13.2589327901
496 28 2 46.6145000139 11.7054913731 13.7397077054
497 28 2 46.007800946 11.2862090086 14.4674223136
498 28 2 45.6030795449 11.0055341195 15.3789442307
499 28 2 45.424613739 10.9031872693 16.3943875277
500 28 2 45.4760588637 11.0026348971 17.4243941197
501 28 2 45.7401144878 11.3089504149 18.3782785164
502 28 2 46.1801013011 11.8083517794 19.1722935619
503 28 2 46.7433043359 12.4694576884 19.7372637645
504 28 2 47.3657777951 13.2461479026 20.0248904579
505 29 1 38.2277208903 64.6034459598 65.370852841
506 29 1 42.9776877895 62.3174077294 63.7186316916
507 29 2 38.1723253902 64.6559275341 65.9199963659
508 29 2 38.1301207575 64.5268976826 66.9471380687
509 29 2 38.1857932542 64.1180187309 67.8974898915
510 29 2 38.3521101248 63.4713507422 68.6897078048
511 29 2 38.631753675 62.6506276147 69.2568612621
512 29 2 39.0170767864 61.7354479075 69.5525337406
513 29 2 39.4907999312 60.8140196444 69.555053483
514 29 2 40.0275861547 59.9751203882 69.2694688207
515 29 2 40.5963504712 59.3000054035 68.7270880311
516 29 2 41.1630931773 58.8550014562 67.9826256726
517 29 2 41.6939988338 58.6854613064 67.1092154982
518 29 2 42.1585184531 58.8116299249 66.1917445101
519 29 2 42.5321539573 59.226799219 65.3191157354
520 29 2 42.7986911126 59.8979194567 64.5761449536
521 29 2 42.9516774136 60.7686116615 64.0358299646
522 29 2 42.9950102116 61.7643064058 63.7526970346
523 30 1 54.1048297396 46.3099816603 53.9725850439
524 30 1 51.9744091617 43.5127399431 58.2334227547
525 30 2 54.0456708363 46.8604748592 54.0015514072
526 30 2 53.7099292175 47.8358924085 54.0979266169
527 30 2 53.1116532023 48.6666613889 54.2571080294
528 30 2 52.3080784697 49.2802902014 54.4833321234
529 30 2 51.375153128 49.6240789933 54.774724616
530 30 2 50.4006152481 49.6699231083 55.123471299
531 30 2 49.4759957723 49.4168747512 55.5165302833
532 30 2 48.6882757138 48.8912293767 55.9368207316
533 30 2 48.1119580699 48.1441289292 56.3647797318
534 30 2 47.8022770728 47.2469003909 56.7801454035
535 30 2 47.790163737 46.2845545183 57.1638037146
536 30 2 48.0794265799 45.3480373389 57.4995306744
537 30 2 48.6464044859 44.5259406638 57.7754711065
538 30 2 49.4421233536 43.896427181 57.9852192167
539 30 2 50.3967599543 43.5201061352 58.1284024643
540 30 2 51.4260061326 43.4345089574 58.2107155176
541 31 1 19.659211317 8.99777131473 30.328911413
542 31 1 22.4478717253 4.67192958798 28.3218096359
543 31 2 19.8423430344 9.18792568211 30.8164415954
544 31 2 20.1696315756 9.31723821236 31.7909211957
545 31 2 20.4673336803 9.14173659171 32.7676620259
546 31 2 20.727334078 8.67555649477 33.6556518465
547 31 2 20.9449539082 7.95932816231 34.3719678358
548 31 2 21.1193771857 7.05647306346 34.8493347826
549 31 2 21.2537251759 6.04742319832 35.0422570425
550 31 2 21.3547718993 5.02228993606 34.9311653439
551 31 2 21.4323266979 4.07265060456 34.5242004751
552 31 2 21.4983401398 3.28320146164 33.8564712729
553 31 2 21.5658147572 2.72403785763 32.9868545463
554 31 2 21.6476198996 2.44426523144 31.9926286125
555 31 2 21.7553187279 2.46752328113 30.9624295848
556 31 2 21.8981142624 2.78983126858 29.9881724279
557 31 2 22.0820105527 3.37995085313 29.1566731546
558 31 2 22.3092654241 4.18223338282 28.541735778
559 32 1 46.1633720586 51.1072149261 9.77331646687
560 32 1 41.6345315791 50.9608365789 12.9334063948
561 32 2 46.3338138808 51.615726583 9.6327922055
562 32 2 46.4278591316 52.5943300315 9.30577417462
563 32 2 46.220630798 53.5393933843 8.93515079668
564 32 2 45.7275850763 54.374635095 8.57083333605
565 32 2 44.9902296538 55.0337835668 8.26215828958
566 32 2 44.0723403941 55.4666176306 8.0533904968
567 32 2 43.0541483375 55.6435440709 7.97968851808
568 32 2 42.025026856 55.558294968 8.06390002587
569 32 2 41.0753455098 55.2284990024 8.31447930036
570 32 2 40.2882331027 54.6940746472 8.72471664446
571 32 2 39.7320007146 54.0135917067 9.27334995481
572 32 2 39.4539153285 53.2589328345 9.92650270557
573 32 2 39.4758915716 52.5087416223 10.6407717033
574 32 2 39.7924942557 51.8412544466 11.367183172
575 32 2 40.3714337799 51.3271694318 12.0556565818
576 32 2 41.1565092415 51.0232025056 12.6595693557
577 33 1 18.9975498928 32.9848445942 45.2171603783
578 33 1 19.9477975638 27.7296368142 43.8037207389
579 33 2 18.7883289025 33.3013033134 44.8128559826
580 33 2 18.576259165 33.8046932586 43.9324725431
581 33 2 18.6028861925 34.1433680522 42.9536771627
582 33 2 18.853768928 34.2742412757 41.956992627
583 33 2 19.294026006 34.1731670684 41.0245722706
584 33 2 19.8715150959 33.837140958 40.2327119197
585 33 2 20.521585536 33.2845737103 39.6448957316
586 33 2 21.1729710684 32.5536132369 39.3060097839
587 33 2 21.7542855682 31.698667515 39.2382508276
588 33 2 22.2005296977 30.785445446 39.4391031136
589 33 2 22.4590154227 29.8849676646 39.8815676956
590 33 2 22.4941683854 29.0670931976 40.5166233125
591 33 2 22.2907704126 28.3941520005 41.2776945451
592 33 2 21.8553466111 27.9152637487 42.0867199876
593 33 2 21.2155706221 27.6618607103 42.8612673362
594 33 2 20.4177422422 27.6448227787 43.522046873