LAMMPS input file for bananas

4320 atoms

2 atom types

0 80.0 xlo xhi
0 80.0 ylo yhi
0 80.0 zlo zhi

Masses

 1 1
 2 1

Atoms

1 1 1 78.299580461 42.6855476844 47.0907943094
2 1 1 72.8598626921 43.4980236102 47.6078480066
3 1 2 78.442264261 42.2583840891 46.767445915
4 1 2 78.5553122208 41.3423014428 46.2968476201
5 1 2 78.4492199812 40.3480625058 46.0254007858
6 1 2 78.1205366168 39.3674352358 45.9638588123
7 1 2 77.5860997882 38.4909469237 46.1038428332
8 1 2 76.8815010341 37.7996328726 46.4186054259
9 1 2 76.0578416983 37.3576502467 46.8654685683
10 1 2 75.177075178 37.2064303172 47.3897136263
11 1 2 74.3063600379 37.3609021126 47.9295688111
12 1 2 73.5119386862 37.8081316777 48.4218395122
13 1 2 72.8530995562 38.5085009692 48.8076683181
14 1 2 72.376773124 39.3993189343 49.0378997111
15 1 2 72.1132543212 40.4005356324 49.0775604622
16 1 2 72.0734412327 41.4220385737 48.9090473467
17 1 2 72.2478417654 42.3718662314 48.5337316318
18 1 2 72.6074388275 43.1645900895 47.9718340886
19 2 1 33.8464859904 71.1370539407 43.5436780032
20 2 1 36.9552785666 70.8561275737 48.1015810469
21 2 2 33.6568344906 71.6434088648 43.4211276564
22 2 2 33.2330081943 72.5888205132 43.4168736
23 2 2 32.7659177141 73.4665628632 43.7081550126
24 2 2 32.3131418722 74.2076637165 44.2731449006
25 2 2 31.9309547497 74.7556053815 45.0650684741
26 2 2 31.6691964547 75.0714761106 46.0164665447
27 2 2 31.5667303294 75.1375168017 47.0453442495
28 2 2 31.6479006607 74.9587396929 48.0626446642
29 2 2 31.9203137631 74.5624715104 48.9803661036
30 2 2 32.3741446838 73.9958627105 49.7195832399
31 2 2 32.9830327207 73.3215898414 50.2176409352
32 2 2 33.7064841298 72.6121427437 50.4338650904
33 2 2 34.4935630223 71.9432172947 50.3532699802
34 2 2 35.2875340341 71.3868159317 49.987924162
35 2 2 36.0310336029 71.0046848225 49.3758504591
36 2 2 36.6712985034 70.8426858668 48.5775602821
37 3 1 65.5312644333 9.82179991569 68.7257413258
38 3 1 70.8831983916 11.0903663512 69.2410404283
39 3 2 65.4199344243 9.27878645008 68.7146240731
40 3 2 65.3797820236 8.26024436443 68.5291252438
41 3 2 65.5709562183 7.31280631722 68.1559448783
42 3 2 65.9885667943 6.51601478915 67.6419656192
43 3 2 66.6070844668 5.93568123334 67.0469035519
44 3 2 67.3826678061 5.61788753729 66.437865243
45 3 2 68.2571592668 5.58478578199 65.8832311562
46 3 2 69.1633860924 5.83257913894 65.4464229557
47 3 2 70.0312829329 6.33186794093 65.1801227913
48 3 2 70.794278114 7.03032938313 65.1214714607
49 3 2 71.3953614672 7.85748660687 65.2886831257
50 3 2 71.7922806543 8.731132477 65.6793851396
51 3 2 71.9613923554 9.56482254248 66.2708343077
52 3 2 71.8998172937 10.2757542171 67.0219898689
53 3 2 71.6257026747 10.7923140138 67.8772542509
54 3 2 71.1765681161 11.0606049228 68.7715406411
55 4 1 22.0058057372 76.3114990106 0.58671876904
56 4 1 27.1302190279 77.5933927691 2.20385447128
57 4 2 21.7002072423 76.0473894144 0.966504589214
58 4 2 21.3173548993 75.4135417735 1.69115020102
59 4 2 21.2136526368 74.6562726061 2.3906066042
60 4 2 21.4039294339 73.8534640811 3.01729889222
61 4 2 21.8762188638 73.0871491583 3.53028441317
62 4 2 22.5928498022 72.4360345032 3.89898458304
63 4 2 23.4938800493 71.9683265848 4.10597204194
64 4 2 24.502559901 71.7355148382 4.14855911135
65 4 2 25.5323276798 71.7676785403 4.03904276886
66 4 2 26.4946995997 72.070745164 3.80358381152
67 4 2 27.3073348272 72.625950105 3.47982236909
68 4 2 27.9015406283 73.3915470253 3.11344710686
69 4 2 28.228533527 74.3066129204 2.75403082587
70 4 2 28.2638857895 75.296601088 2.45051203465
71 4 2 28.0097519465 76.2801358612 2.24673433492
72 4 2 27.4946724132 77.1764297826 2.17745019449
73 5 1 21.9309096647 50.2663962343 36.653637114
74 5 1 19.1390298455 48.716515856 41.161548931
75 5 2 21.730299446 50.7153073052 36.3974809534
76 5 2 21.1515357809 51.4375830244 35.9318626369
77 5 2 20.3505742316 51.9599839866 35.5331047625
78 5 2 19.395076853 52.2458123178 35.2524324702
79 5 2 18.3667912277 52.2799331071 35.1303077149
80 5 2 17.3540993928 52.0701539132 35.1927412671
81 5 2 16.4439620527 51.6465131264 35.4489219009
82 5 2 15.713992344 51.0585420495 35.8903788617
83 5 2 15.225381605 50.3707502522 36.4917539531
84 5 2 15.0173219492 49.656745696 37.2131128682
85 5 2 15.1034340086 48.9925255652 38.0035850956
86 5 2 15.4705254497 48.4495493269 38.80600063
87 5 2 16.0797934192 48.0882253916 39.5621008655
88 5 2 16.8703613207 47.9524050475 40.2178487122
89 5 2 17.7648275534 48.0653855335 40.728353932
90 5 2 18.6763204615 48.4277865578 41.0619647641
91 6 1 53.2699427633 49.6379026547 19.293483008
92 6 1 52.2179539401 46.5593944598 23.7582448013
93 6 2 53.1318415743 50.1727657591 19.3407176265
94 6 2 52.6676764904 51.0850035554 19.5014129569
95 6 2 51.9778015129 51.8140207409 19.7584274893
96 6 2 51.1298997403 52.2970401152 20.1065724005
97 6 2 50.2060579912 52.4937065211 20.5323525768
98 6 2 49.2952848101 52.389765109 21.0151966578
99 6 2 48.4853975763 51.9983606282 21.5293320604
100 6 2 47.8550181848 51.3588393189 22.0461340813
101 6 2 47.4664068707 50.5331626065 22.5367349622
102 6 2 47.3597873546 49.6002594843 22.9746551086
103 6 2 47.5496805588 48.648832346 23.3382166339
104 6 2 48.0235810636 47.769272 23.6125192415
105 6 2 48.7430969427 47.0454187886 23.7907983463
106 6 2 49.6474490851 46.5469207649 23.8750416488
107 6 2 50.6590110484 46.322885459 23.8758079618
108 6 2 51.6903845016 46.3974038579 23.8112648022
109 7 1 11.1846556324 55.4962777959 40.8024403986
110 7 1 8.07579481946 57.1667325618 45.0524470319
111 7 2 11.4266633719 55.9042809927 40.515478322
112 7 2 11.6615448026 56.7565767277 39.9752258765
113 7 2 11.5999651129 57.6672283182 39.4849487775
114 7 2 11.2523122314 58.565525042 39.1033069544
115 7 2 10.6550488935 59.3818822903 38.8790585218
116 7 2 9.86738916041 60.0541840182 38.8466156071
117 7 2 8.96590121598 60.5334444566 39.0229077777
118 7 2 8.03752838127 60.7882730339 39.4058389557
119 7 2 7.17166446323 60.807735543 39.9744784701
120 7 2 6.45200574813 60.6023507645 40.6909688313
121 7 2 5.94892230876 60.2031317086 41.5039763403
122 7 2 5.71304396038 59.6587588616 42.3533700178
123 7 2 5.7706454884 59.0311430901 43.1757023828
124 7 2 6.12125177187 58.3897826305 43.9099925203
125 7 2 6.73768108953 57.8054285111 44.5032843293
126 7 2 7.56852266104 57.3436357845 44.9154733295
127 8 1 76.8738449548 69.7764228984 39.926693681
128 8 1 77.639652929 66.0536389981 43.9357346186
129 8 2 76.3464509373 69.9266856635 39.8450956427
130 8 2 75.3238461332 69.9752839878 39.6858234584
131 8 2 74.3296534762 69.7195506179 39.5457113055
132 8 2 73.4477531265 69.183298277 39.4555158989
133 8 2 72.7517901009 68.4159082427 39.4414441757
134 8 2 72.2984617259 67.4878293755 39.5227646025
135 8 2 72.1223498281 66.4841568936 39.7100509067
136 8 2 72.2327686932 65.4968761712 40.0042183089
137 8 2 72.6129160937 64.6164785172 40.3964401034
138 8 2 73.2214047669 63.9237131349 40.8689521887
139 8 2 73.9960347535 63.4822270471 41.3966722179
140 8 2 74.8594627576 63.3327638408 41.9494857877
141 8 2 75.7262517812 63.4894499976 42.4949912854
142 8 2 76.5106584784 63.9385073033 43.0014532097
143 8 2 77.1344484322 64.6395086946 43.4406947766
144 8 2 77.5340270124 65.5290630783 43.7906661581
145 9 1 44.5262057757 65.3348634227 11.6353678286
146 9 1 40.1727803091 68.6830271034 11.0391482927
147 9 2 45.0129746065 65.5932028254 11.6961826822
148 9 2 45.8536394545 66.1937504907 11.6182395856
149 9 2 46.5333185558 66.9113538879 11.3075440841
150 9 2 46.985164928 67.6956225181 10.8033540576
151 9 2 47.1630979327 68.4900895246 10.1625638948
152 9 2 47.046003403 69.2373584958 9.45451872179
153 9 2 46.6396581432 69.884334995 8.75469377902
154 9 2 45.9762033887 70.3870659762 8.1378150549
155 9 2 45.1112152177 70.714745987 7.67104821176
156 9 2 44.1186389412 70.8525250029 7.40787661516
157 9 2 43.0840491847 70.8028619675 7.38322646811
158 9 2 42.0968499901 70.5853006665 7.610283381
159 9 2 41.2421258763 70.2346883638 8.07929053848
160 9 2 40.5928866128 69.7979995663 8.75843800706
161 9 2 40.2034125741 69.3300544235 9.59676212555
162 9 2 40.1043072286 68.8885220172 10.5287907066
163 10 1 60.3656561587 32.72225867 33.8544219375
164 10 1 56.0709315679 30.166687017 31.5001948295
165 10 2 60.2629162269 33.2379492802 34.0301754268
166 10 2 59.9848478115 34.2297828213 34.1415046432
167 10 2 59.6024990869 35.1770302465 33.9683521689
168 10 2 59.1328385581 35.9916569901 33.5333208282
169 10 2 58.6007929677 36.5977165071 32.8828830043
170 10 2 58.0369752901 36.9382725976 32.0831448054
171 10 2 57.4748944402 36.9805889895 31.21382067
172 10 2 56.9479010261 36.719113162 30.3609676086
173 10 2 56.4861475296 36.1759824432 29.6091413375
174 10 2 56.1138399884 35.3990062518 29.033689251
175 10 2 55.8470316806 34.4573083962 28.6938827077
176 10 2 55.6921599112 33.4350266243 28.627514605
177 10 2 55.6454592685 32.4236436926 28.8474546573
178 10 2 55.6933048322 31.5136489574 29.3404763557
179 10 2 55.8134540477 30.7862905118 30.0684625293
180 10 2 55.977074076 30.3061696395 30.9718796231
181 11 1 69.8771263597 44.8667625858 1.31839942496
182 11 1 66.3552950889 42.4392389309 4.81437203155
183 11 2 70.0067420766 45.3910091745 1.44388595099
184 11 2 70.0156077617 46.396711951 1.6927500426
185 11 2 69.7223067715 47.3547864583 1.95641228622
186 11 2 69.1546259973 48.177180691 2.230011036
187 11 2 68.3653613142 48.7882095378 2.50777896012
188 11 2 67.4275053787 49.1314532776 2.78356871764
189 11 2 66.4275945424 49.1749000862 3.05141327225
190 11 2 65.4578212954 48.9138638281 3.30606977162
191 11 2 64.6076311673 48.3714111857 3.54349741942
192 11 2 63.9555700056 47.5962591927 3.76122578309
193 11 2 63.5621247326 46.6583348064 3.95857996717
194 11 2 63.464210123 45.6424012531 4.1367421282
195 11 2 63.6718041218 44.6403320858 4.29864372436
196 11 2 64.1670383808 43.742737156 4.44869832081
197 11 2 64.9058269108 43.0307037677 4.59239930511
198 11 2 65.8218844019 42.568405786 4.73581917955
199 12 1 56.1849593556 36.9536496068 67.0121417186
200 12 1 50.7095034482 37.0864305997 66.2912097699
201 12 2 56.3597513126 36.6109897873 67.4114080556
202 12 2 56.524339123 36.0818255109 68.2868199772
203 12 2 56.4556595029 35.7266370919 69.2576826389
204 12 2 56.1480061933 35.5629174405 70.2333851182
205 12 2 55.6174547488 35.5907076003 71.1228753558
206 12 2 54.9003972929 35.7925930075 71.8429593082
207 12 2 54.0502254736 36.1352907819 72.3258838616
208 12 2 53.1324639575 36.5726833724 72.5255123479
209 12 2 52.2187980313 37.0500220483 72.4215297781
210 12 2 51.3805396795 37.5089171004 72.0212944996
211 12 2 50.6821276881 37.892659906 71.3591675024
212 12 2 50.1752542207 38.1513917692 70.4933805065
213 12 2 49.8941532167 38.2466484072 69.5007282967
214 12 2 49.8524800587 38.1548658671 68.4695690828
215 12 2 50.0420669213 37.8695283171 67.4917708851
216 12 2 50.4336672459 37.4017619473 66.6543380101
217 13 1 64.1209326278 54.8109154143 44.9717915995
218 13 1 61.6528292473 51.5588213486 48.6933962202
219 13 2 64.2549103895 55.3164923572 45.1557032692
220 13 2 64.2814261151 56.2650668484 45.571579888
221 13 2 64.0205685919 57.139221593 46.0627589249
222 13 2 63.5017963289 57.8555148569 46.6024341147
223 13 2 62.7780760744 58.3448935577 47.1593788978
224 13 2 61.921055038 58.5589872695 47.700792637
225 13 2 61.0145304398 58.474517057 48.1952903085
226 13 2 60.1468116167 58.0954172885 48.6157631625
227 13 2 59.4026708635 57.4524770293 48.9418496136
228 13 2 58.8556166636 56.6005336999 49.1617911446
229 13 2 58.5611935884 55.613474792 49.2735040641
230 13 2 58.5519195572 54.5775032214 49.2847694296
231 13 2 58.834321916 53.5832801623 49.2125238243
232 13 2 59.3883424877 52.7176615234 49.0813156335
233 13 2 60.1691658209 52.0557812645 48.9210675243
234 13 2 61.1113039987 51.6542031367 48.7643490751
235 14 1 29.3503519148 58.4313045397 62.2403577527
236 14 1 24.7721223674 56.0161762455 60.3103420547
237 14 2 29.8106723119 58.3248159395 61.9502769052
238 14 2 30.602100568 57.9021430171 61.4321659833
239 14 2 31.2352618798 57.223651869 60.9715071874
240 14 2 31.6457965876 56.351250203 60.5922624143
241 14 2 31.7896368513 55.3645201519 60.3109728907
242 14 2 31.6470233168 54.3534645758 60.1352514836
243 14 2 31.2243061278 53.410303541 60.0630888087
244 14 2 30.5533661276 52.6210687078 60.0830363799
245 14 2 29.6887090055 52.057761775 60.1752501084
246 14 2 28.7024972483 51.7717917167 60.3132990383
247 14 2 27.6779727233 51.7892889925 60.4665744575
248 14 2 26.7018694039 52.1087238253 60.6030798003
249 14 2 25.8565078001 52.7010456369 60.6923470484
250 14 2 25.2122916641 53.5123309302 60.7082138099
251 14 2 24.8212908761 54.4686982721 60.6312079508
252 14 2 24.7124954144 55.4830423884 60.4503224282
253 15 1 13.1290221986 6.74409130457 40.3417332004
254 15 1 7.90218725715 6.42231957742 38.5825713229
255 15 2 13.342119332 7.25587777567 40.3485013457
256 15 2 13.6594095981 8.21996977672 40.1404063872
257 15 2 13.8336732951 9.12542478568 39.6679305658
258 15 2 13.8339722732 9.90012768148 38.9799731943
259 15 2 13.6452248015 10.4838810487 38.1450741528
260 15 2 13.2695802282 10.833892011 37.245166662
261 15 2 12.7262230722 10.9286726876 36.368109289
262 15 2 12.0496244065 10.769998756 35.5996778736
263 15 2 11.2863999113 10.382747604 35.01574729
264 15 2 10.4910609799 9.81263082198 34.6753756547
265 15 2 9.72104615031 9.12202771365 34.615421337
266 15 2 9.03148573663 8.38429958946 34.8471834173
267 15 2 8.47017684783 7.67710307906 35.3553718058
268 15 2 8.0732268092 7.07531193713 36.0995008937
269 15 2 7.86176207615 6.64419250071 37.0175797081
270 15 2 7.84000261422 6.43345483705 38.0317622233
271 16 1 8.42752069641 38.4292658308 7.97443842317
272 16 1 6.57708570141 33.6114799136 9.94492573525
273 16 2 8.09517550502 38.8630453382 8.06805252857
274 16 2 7.30892816438 39.532410031 8.15299979805
275 16 2 6.36632815209 39.9618288899 8.12944833079
276 16 2 5.34682670313 40.1083737333 8.01723685358
277 16 2 4.33688441289 39.95489959 7.84428521615
278 16 2 3.42209058497 39.5116074175 7.6440495715
279 16 2 2.67936199495 38.8151143122 7.45247293694
280 16 2 2.16993213189 37.9251159585 7.30470908417
281 16 2 1.9337699294 36.9189455272 7.23191836693
282 16 2 1.98593670424 35.8845249635 7.25842753804
283 16 2 2.3152133575 34.9123511365 7.3995124309
284 16 2 2.88512296552 34.0872472918 7.66000560811
285 16 2 3.63725555396 33.4806316392 8.0338558863
286 16 2 4.49659201086 33.1440077735 8.50467988533
287 16 2 5.37834187816 33.1042702599 9.04725532958
288 16 2 6.19567177539 33.3612532663 9.62981999098
289 17 1 62.3397959835 55.3875459579 33.6166656424
290 17 1 62.8228421286 55.7554173438 39.1075060267
291 17 2 62.4160337058 55.8636791632 33.3430480834
292 17 2 62.4027573735 56.83662516 32.9871691188
293 17 2 62.2007830922 57.8460141885 32.8697374786
294 17 2 61.8427820884 58.807879298 33.011514781
295 17 2 61.3756470068 59.6425852162 33.4096364419
296 17 2 60.8562177719 60.2820868911 34.037872774
297 17 2 60.3461007806 60.6761316158 34.8490197528
298 17 2 59.9060536433 60.7968394283 35.7792015372
299 17 2 59.5904472908 60.6412442957 36.7536925819
300 17 2 59.442310209 60.2315644598 37.6937286707
301 17 2 59.4894065071 59.6131773044 38.5236860647
302 17 2 59.7417052938 58.8504833272 39.1779744037
303 17 2 60.1904720193 58.0210362073 39.6070150925
304 17 2 60.8090646063 57.2084739944 39.7817602571
305 17 2 61.5553618042 56.4948957237 39.6963403807
306 17 2 62.3756024283 55.953378309 39.3685992949
307 18 1 76.7342524207 12.5361638688 68.0522256431
308 18 1 71.3057109202 11.9364450367 67.2220054546
309 18 2 76.8729964627 12.7509752851 68.5441481311
310 18 2 76.9738624791 13.3166530065 69.4062877796
311 18 2 76.8505488769 14.0427489893 70.1350047277
312 18 2 76.5014437725 14.8547992176 70.6755138062
313 18 2 75.9455155744 15.670505176 70.99018449
314 18 2 75.220584063 16.4072351386 71.0619708202
315 18 2 74.3798732194 16.9895558308 70.8959650976
316 18 2 73.487160001 17.3561079702 70.518933733
317 18 2 72.6109612428 17.4651990013 69.9768775603
318 18 2 71.8182885311 17.2986032604 69.3308389837
319 18 2 71.168540276 16.8632231963 68.6513381258
320 18 2 70.7080877056 16.1904602305 68.0119451063
321 18 2 70.4660482521 15.3333526014 67.482574323
322 18 2 70.451631576 14.3617410708 67.1231119406
323 18 2 70.65330013 13.3559031252 66.9779574275
324 18 2 71.0398207755 12.3992358972 67.0719766624
325 19 1 44.5397166449 15.0388113987 77.2089919212
326 19 1 49.5509159519 16.4094145682 79.0871078704
327 19 2 44.5392985413 14.6969722832 76.7724974398
328 19 2 44.6904003818 14.2144226867 75.8681943203
329 19 2 45.0384826381 13.9631674322 74.9252417493
330 19 2 45.5664303351 13.9543699612 74.0338137686
331 19 2 46.2407342436 14.1770943364 73.279388091
332 19 2 47.0145451567 14.5993020229 72.734955036
333 19 2 47.8319440701 15.1707721152 72.4543646565
334 19 2 48.6330390499 15.8276788384 72.4674184509
335 19 2 49.359424222 16.498409097 72.7771530357
336 19 2 49.9595033117 17.1100898174 73.3595633668
337 19 2 50.3931925059 17.5952301334 74.1657907341
338 19 2 50.6355739861 17.8978729984 75.1265761032
339 19 2 50.6791671203 17.9786955209 76.1585728908
340 19 2 50.5346103032 17.8185931406 77.1719437832
341 19 2 50.2296912944 17.4204209582 78.0785491673
342 19 2 49.8068144388 16.8087335005 78.7999808205
343 20 1 40.2688686733 3.99985858131 42.2835083995
344 20 1 38.3789288023 7.54107194269 46.0790223666
345 20 2 39.8841167548 3.66816385965 42.0614134629
346 20 2 39.1099884667 3.00635786382 41.8711814238
347 20 2 38.313897533 2.35333462835 41.9862895922
348 20 2 37.5533701425 1.78049216125 42.394823076
349 20 2 36.8826909622 1.35192020777 43.05812205
350 20 2 36.3479552347 1.11855864148 43.9143054955
351 20 2 35.9828673205 1.11355443088 44.8839114896
352 20 2 35.805668635 1.34924038185 45.8771399475
353 20 2 35.817474993 1.81601103536 46.8020376598
354 20 2 36.0021749043 2.48319817938 47.5728795818
355 20 2 36.3278980938 3.30186617443 48.1179824426
356 20 2 36.7499203914 4.20927230633 48.3862384833
357 20 2 37.2147402205 5.1345856169 48.3517737925
358 20 2 37.6649551242 6.0053429565 48.0163066447
359 20 2 38.0444938452 6.75405380641 47.4089908837
360 20 2 38.3037270715 7.32435185927 46.5837586276
361 21 1 75.1833641428 41.6961429657 49.3540050179
362 21 1 76.3451424654 36.3118057766 49.7749268919
363 21 2 74.8702676387 41.8341423251 48.9177615722
364 21 2 74.4441782984 41.9667426953 47.9827134306
365 21 2 74.2479944932 41.9138996348 46.9667559823
366 21 2 74.2873659306 41.6656380164 45.9616360542
367 21 2 74.5464720874 41.2297945919 45.0581126621
368 21 2 74.9894642079 40.6313036936 44.3376845692
369 21 2 75.5637328222 39.9099245361 43.8651618916
370 21 2 76.2047029591 39.1166172706 43.6827588291
371 21 2 76.8417199818 38.3088981029 43.8062459543
372 21 2 77.4044895693 37.5455968453 44.2235127668
373 21 2 77.8294848557 36.8814947362 44.8956715325
374 21 2 78.0657367347 36.3623312769 45.7606017976
375 21 2 78.0794795569 36.020635198 46.7386125008
376 21 2 77.8572287788 35.8727595528 47.7397056016
377 21 2 77.4070100429 35.9173911801 48.6717791602
378 21 2 76.7576276614 36.1356703953 49.4490221841
379 22 1 29.3899038426 76.7466095315 43.3139729765
380 22 1 26.3598769541 72.9569124936 45.9550190719
381 22 2 29.2871039776 77.2713644221 43.4604177802
382 22 2 28.8711766111 78.1906838335 43.6955906034
383 22 2 28.196254886 78.9553199763 43.8779700029
384 22 2 27.3210239962 79.493861009 44.0098580494
385 22 2 26.3224267806 79.7555030553 44.0981589654
386 22 2 25.2886505889 79.7146808412 44.153749824
387 22 2 24.3110892406 79.3733979019 44.1904891323
388 22 2 23.4760127223 78.7610439645 44.2239536662
389 22 2 22.8567039092 77.931716153 44.2700186883
390 22 2 22.506779027 76.9592881801 44.3434109603
391 22 2 22.455300676 75.9306769559 44.4563664385
392 22 2 22.7041288528 74.9379203436 44.6175149982
393 22 2 23.2277514168 74.0697881543 44.8310938445
394 22 2 23.9756094533 73.4036910161 45.0965613018
395 22 2 24.8767055838 72.9986246022 45.4086461864
396 22 2 25.8460751868 72.8897923329 45.7578282607
397 23 1 34.2876218755 40.8742025796 47.5958308548
398 23 1 32.9956132335 37.570839944 51.8309813867
399 23 2 34.8198222368 41.0279639652 47.5734299648
400 23 2 35.7793588754 41.3730363949 47.7569087609
401 23 2 36.6240510566 41.7516538592 48.2223053078
402 23 2 37.2858467103 42.1132321509 48.9327542242
403 23 2 37.713364296 42.4087401381 49.8290542602
404 23 2 37.876576093 42.5951688202 50.8350643333
405 23 2 37.7695451466 42.6394514841 51.8646435839
406 23 2 37.410966406 42.521477646 52.8295028853
407 23 2 36.8424627297 42.2359260689 53.647252161
408 23 2 36.1247910726 41.7927497786 54.2489100202
409 23 2 35.3323046527 41.2162688722 54.5851912271
410 23 2 34.5461758536 40.5429538065 54.6309989185
411 23 2 33.8469975786 39.8181012128 54.3877121158
412 23 2 33.3074374233 39.0917052305 53.8830600307
413 23 2 32.9856142182 38.4139006748 53.1685946221
414 23 2 32.9198006529 37.8303933821 52.3149917724
415 24 1 22.0873099773 35.950824569 54.9460417356
416 24 1 22.9120017684 30.6926603725 56.4257659645
417 24 2 21.6974751114 36.2169417824 55.2368887642
418 24 2 20.8389558995 36.5253074917 55.7281171869
419 24 2 19.8833413744 36.5582640978 56.1270717618
420 24 2 18.9206355176 36.3058619447 56.4150658545
421 24 2 18.0414886661 35.784161065 56.5835265821
422 24 2 17.3289349772 35.03376735 56.6347762084
423 24 2 16.8508240866 34.1161314321 56.5818204756
424 24 2 16.6536367956 33.1079476232 56.4471631663
425 24 2 16.7582484701 32.0941634337 56.260754943
426 24 2 17.1580263072 31.1602368334 56.0572634259
427 24 2 17.8194338968 30.3843469867 55.8729133317
428 24 2 18.6850879765 29.8302684299 55.7421846877
429 24 2 19.6789887621 29.5415581933 55.6946700692
430 24 2 20.7134471248 29.5375856941 55.7523773155
431 24 2 21.6970772212 29.8117672656 55.9277235741
432 24 2 22.5431260685 30.3321662413 56.2224035112
433 25 1 57.9274014631 45.3889094511 42.0374251283
434 25 1 54.1381002322 48.1160819703 44.9906805005
435 25 2 58.4255178113 45.6313758564 42.0157056897
436 25 2 59.2316134511 46.2742275193 41.9137176019
437 25 2 59.8128202916 47.1171881161 41.755394982
438 25 2 60.1178913592 48.0903844629 41.5729928835
439 25 2 60.1207487178 49.1120727352 41.4009611399
440 25 2 59.8228604034 50.0960891993 41.2728043544
441 25 2 59.2531066159 50.959703806 41.2180280454
442 25 2 58.4651473669 51.6311608136 41.2594492967
443 25 2 57.5325315123 52.0562191319 41.4111170416
444 25 2 56.541992971 52.2030962529 41.6770315404
445 25 2 55.5855451599 52.0653651409 42.0507797669
446 25 2 54.7520942173 51.6625400402 42.5161199389
447 25 2 54.1193354454 51.0382978035 43.0484619132
448 25 2 53.7466715913 50.2564968638 43.6171085114
449 25 2 53.6697984459 49.3953567085 44.1880534857
450 25 2 53.8974512674 48.5403283827 44.7270810974
451 26 1 11.9164000572 40.7250695655 16.5827487487
452 26 1 15.6189859151 42.015560027 20.4742116349
453 26 2 11.8554630906 41.1046391599 16.1832550727
454 26 2 11.7179159366 41.9619710975 15.6180004925
455 26 2 11.5759917415 42.9473127509 15.3309301877
456 26 2 11.4607121427 43.9768473124 15.3457359987
457 26 2 11.4006701941 44.9627299084 15.658594565
458 26 2 11.4194241853 45.8210944255 16.2385158139
459 26 2 11.5333503665 46.4796976822 17.0301676228
460 26 2 11.7501502974 46.8845042022 17.9589191948
461 26 2 12.0681488701 47.0046114033 18.9376434559
462 26 2 12.4764469912 46.8350662852 19.8746584549
463 26 2 12.9559150047 46.3973168824 20.6820839286
464 26 2 13.4809363091 45.7372573332 21.2838513525
465 26 2 14.0217422423 44.9210447513 21.6226373838
466 26 2 14.5471254154 44.0290691823 21.6650887307
467 26 2 15.0272841829 43.1486262653 21.4048622157
468 26 2 15.4365389829 42.3659604691 20.8632029396
469 27 1 42.847394626 33.8725127855 14.64345577
470 27 1 37.8080756344 35.3107840777 16.391205996
471 27 2 43.1638649585 34.2937811377 14.4709417354
472 27 2 43.565833857 35.1356395566 14.0202251743
473 27 2 43.6862018093 35.9922857625 13.4500332372
474 27 2 43.5093780305 36.7993962462 12.8249284224
475 27 2 43.0468599676 37.4971625471 12.2144783901
476 27 2 42.3361853378 38.0357426346 11.6869150563
477 27 2 41.4375106664 38.3798038759 11.3029154359
478 27 2 40.4281281799 38.5117435113 11.1100710953
479 27 2 39.3954208263 38.4332930985 11.1385503076
480 27 2 38.4288975526 38.1653606855 11.398348296
481 27 2 37.6120348043 37.7461250986 11.8783761954
482 27 2 37.0146678696 37.2275560437 12.5474717729
483 27 2 36.6866255802 36.6706772069 13.3572397821
484 27 2 36.6531885461 36.1400041085 14.2464630603
485 27 2 36.9127848957 35.6976636859 15.1466823097
486 27 2 37.4371335478 35.3977315891 15.9884359789
487 28 1 36.8903012356 50.3352503751 66.111296246
488 28 1 32.2241915412 47.8525657149 67.7180595327
489 28 2 36.9419608212 50.8628919998 66.2734911633
490 28 2 36.8226046734 51.8699778061 66.4855814741
491 28 2 36.4267383367 52.8230091352 66.5776202714
492 28 2 35.7828934582 53.63452773 66.5588758309
493 28 2 34.9422042665 54.2299738404 66.448714024
494 28 2 33.9737468232 54.5544821462 66.2748331708
495 28 2 32.9582429244 54.5778825837 66.0707394124
496 28 2 31.980702525 54.2974502666 65.8726927152
497 28 2 31.1226753084 53.7381538522 65.7164018721
498 28 2 30.4548176507 52.950379715 65.6337697418
499 28 2 30.0304524812 52.005339363 65.6499853879
500 28 2 29.8807090394 50.9885786996 65.7812281636
501 28 2 30.0116855287 49.9921807427 66.0331930064
502 28 2 30.4038932806 49.1063725042 66.4005713604
503 28 2 31.0140330957 48.4113010384 66.8675350364
504 28 2 31.7789418493 47.9697282528 67.4091789092
505 29 1 75.9830073278 16.1188783505 67.0447779763
506 29 1 77.2988636613 20.5301569987 70.0988136438
507 29 2 75.461154273 15.9411901674 67.1037515876
508 29 2 74.5370796967 15.6184112395 67.4433836712
509 29 2 73.7453294653 15.3475300923 68.0542887263
510 29 2 73.1484582225 15.1698036455 68.8823032436
511 29 2 72.7912579132 15.1179980165 69.8534747665
512 29 2 72.696675117 15.2134019769 70.8808024602
513 29 2 72.8637195295 15.4638865377 71.8721670048
514 29 2 73.267554225 15.8631875276 72.7387270254
515 29 2 73.8617594769 16.3914765556 73.4030167458
516 29 2 74.5825637908 17.0171683158 73.8060067873
517 29 2 75.3546565064 17.6997995034 73.9124845383
518 29 2 76.0980521625 18.3937169372 73.71426369
519 29 2 76.7353809584 19.0522387247 73.2309303965
520 29 2 77.1989408039 19.6319091921 72.5080580495
521 29 2 77.4368681845 20.0964597524 71.613053385
522 29 2 77.4178653816 20.4201146908 70.6290125395
523 30 1 40.1303374554 48.9795817042 24.8929257883
524 30 1 37.0117216191 45.6584408038 28.0173856531
525 30 2 40.0879997754 49.5195005298 25.0115713555
526 30 2 39.7779838671 50.4865050412 25.2171009704
527 30 2 39.1925670872 51.3212509881 25.4013193442
528 30 2 38.3837756591 51.9473411035 25.5665997254
529 30 2 37.4239958085 52.3073965422 25.71704151
530 30 2 36.3993759519 52.3682868083 25.8580965924
531 30 2 35.4019744995 52.1241495122 25.9960724397
532 30 2 34.5213689763 51.596924711 26.1375571832
533 30 2 33.8364912707 50.8343551314 26.2888191277
534 30 2 33.4084332038 49.9056345476 26.4552354121
535 30 2 33.2748781727 48.8951009538 26.6408018979
536 30 2 33.4466664102 47.8945493813 26.8477689568
537 30 2 33.9068069263 46.994865027 27.0764363556
538 30 2 34.6120261913 46.2777393103 27.3251259328
539 30 2 35.4967124028 45.8082239187 27.5903345594
540 30 2 36.4788958256 45.6288015206 27.8670534386
541 31 1 40.307517442 3.24168435014 57.7584200962
542 31 1 36.6246785102 7.16771146838 56.5170500748
543 31 2 40.1894603085 2.73868112941 57.5573433417
544 31 2 39.7585877394 1.83840060699 57.279325678
545 31 2 39.0837633205 1.06546025624 57.1357108144
546 31 2 38.2192345989 0.494617855226 57.1223297144
547 31 2 37.2365401616 0.182210494087 57.2231428821
548 31 2 36.2179890849 0.161019599801 57.4117023194
549 31 2 35.249158682 0.437282996747 57.6535621901
550 31 2 34.4110943594 0.990126345683 57.9094184661
551 31 2 33.7729225451 1.77346578398 58.1386913842
552 31 2 33.385549999 2.72020834652 58.3032241834
553 31 2 33.2770237983 3.74836731015 58.3707609914
554 31 2 33.4499749208 4.76853506437 58.3178868612
555 31 2 33.8813784389 5.69203237606 58.1321619811
556 31 2 34.5246521798 6.43899126454 57.8132555302
557 31 2 35.313902566 6.94563475458 57.3729758317
558 31 2 36.1699306393 7.17008997722 56.8341940559
559 32 1 6.58197637178 38.6787196168 68.7387465238
560 32 1 6.85772406242 33.6016271878 66.5788653373
561 32 2 6.8716437857 38.7497931524 69.2061039138
562 32 2 7.29955106659 38.6881234811 70.1476676247
563 32 2 7.55943461695 38.3705940868 71.099027512
564 32 2 7.6433308219 37.8156857341 71.9699397683
565 32 2 7.55931684267 37.0635156453 72.6774931726
566 32 2 7.33077440505 36.1721809227 73.1536662269
567 32 2 6.99425861749 35.212463153 73.3515271335
568 32 2 6.5961660707 34.2613768548 73.2495115032
569 32 2 6.18850591243 33.3951498113 72.8533878916
570 32 2 5.82415935262 32.6822751114 72.1957320107
571 32 2 5.55205968251 32.1772681876 71.3329575398
572 32 2 5.41273213586 31.9156978804 70.3401741695
573 32 2 5.43460012229 31.9109444332 69.3043415541
574 32 2 5.63139450937 32.1529799191 68.3163431715
575 32 2 6.00090209082 32.6092822595 67.4627025372
576 32 2 6.52516731431 33.2277995248 66.817696817
577 33 1 49.2442756293 14.678620761 52.6154170143
578 33 1 50.616365775 11.968358815 57.2295084609
579 33 2 48.8537416567 15.0668284937 52.6799116697
580 33 2 48.007365223 15.6189254303 52.908572808
581 33 2 47.0818477753 15.9083633231 53.2733921763
582 33 2 46.1662329192 15.9162039709 53.7581993242
583 33 2 45.3486616653 15.6491760087 54.3358872359
584 33 2 44.708338612 15.1390616107 54.9708830624
585 33 2 44.3083126581 14.4397996301 55.6223904912
586 33 2 44.1897302637 13.6225692166 56.2481082216
587 33 2 44.3680850611 12.7693020271 56.8080856148
588 33 2 44.8318056509 11.9652143747 57.268364088
589 33 2 45.5433103046 11.2910399888 57.6040723488
590 33 2 46.4424324385 10.8156713519 57.8016933463
591 33 2 47.4519046369 10.5898803339 57.8602963149
592 33 2 48.484401371 10.6416904717 57.7916216106
593 33 2 49.4504984867 10.9738226989 57.6190106091
594 33 2 50.2668239779 11.5634473399 57.3752782019