LAMMPS input file for bananas

648 atoms

2 atom types

0 53.5546360066 xlo xhi
0 53.5546360066 ylo yhi
0 53.5546360066 zlo zhi

Masses

 1 1
 2 1

Atoms

1 1 1 44.9899800845 33.9529989683 48.6877991198
2 1 1 42.2003467135 30.7664505859 52.2348889302
3 1 2 44.8890609554 34.4963029994 48.7327173477
4 1 2 44.4755574948 35.4434105705 48.8065560099
5 1 2 43.8025379278 36.2279305065 48.87743015
6 1 2 42.9298018383 36.7804739009 48.9579132331
7 1 2 41.9353524376 37.052795889 49.059702895
8 1 2 40.9082867797 37.0221930384 49.1925547337
9 1 2 39.9406748034 36.693572706 49.3633931129
10 1 2 39.1191674036 36.0990057457 49.5756800245
11 1 2 38.517098433 35.2948033357 49.8290995375
12 1 2 38.1878005186 34.356384365 50.1195865945
13 1 2 38.1597439342 33.3714012037 50.4396975301
14 1 2 38.4339416118 32.431750423 50.7792885418
15 1 2 38.983856815 31.6251966692 51.1264402702
16 1 2 39.7578218923 31.02737315 51.4685442168
17 1 2 40.6837476446 30.6948878702 51.7934519748
18 1 2 41.6756940635 30.6601639634 52.0905825241
19 2 1 4.4343576566 36.6696126954 39.668785784
20 2 1 7.11189675494 34.8701001029 44.1532623274
21 2 2 4.14275625632 37.135424848 39.7420609498
22 2 2 3.51117544419 37.8906479207 40.0648515931
23 2 2 2.82774407332 38.4443656111 40.6123625901
24 2 2 2.16628436935 38.7561331836 41.3463394643
25 2 2 1.59861589921 38.8075590097 42.2115318728
26 2 2 1.18800940954 38.6039809146 43.1407295272
27 2 2 0.983419867254 38.1739796499 44.0608882324
28 2 2 1.01502434515 37.5667738337 44.8997876691
29 2 2 1.29147146236 36.8477338052 45.5926140832
30 2 2 1.79909308589 36.0924232935 46.0878678862
31 2 2 2.50315014432 35.379711985 46.3520577051
32 2 2 3.35099900139 34.7845867627 46.3727530313
33 2 2 4.27688978273 34.3713168522 46.1597172286
34 2 2 5.20795930113 34.1875958532 45.7440176284
35 2 2 6.07087234136 34.2601945961 45.1751938255
36 2 2 6.798505969 34.5925210514 44.5167422766
37 3 1 44.4885057724 21.5958996088 13.0506265066
38 3 1 40.5737888461 18.2826490005 15.1037589562
39 3 2 44.5361945613 22.0864093431 13.3046099075
40 3 2 44.3927017501 23.012903129 13.7455964028
41 3 2 43.9568938267 23.873730256 14.1230856379
42 3 2 43.2655865676 24.5856063014 14.4210399641
43 3 2 42.3788838307 25.078823336 14.630671127
44 3 2 41.3746992496 25.3036036145 14.7512412923
45 3 2 40.3416546141 25.2346366847 14.7901302978
46 3 2 39.3710022305 24.8733863673 14.7621630007
47 3 2 38.5483075185 24.2479573326 14.6882580314
48 3 2 37.9456499511 23.4105334349 14.5935211162
49 3 2 37.6150532039 22.4326212934 14.504956758
50 3 2 37.583743336 21.3985326556 14.4490068473
51 3 2 37.851667207 20.3976996063 14.4491405548
52 3 2 38.3914973214 19.5165230722 14.5237151797
53 3 2 39.151122656 18.8304976088 14.6843029302
54 3 2 40.0583984411 18.3973302726 14.934636148
55 4 1 44.6762112091 42.694276457 33.989754844
56 4 1 46.8668786775 46.2792558562 37.5767995623
57 4 2 44.7185673481 42.8415681642 33.4569390235
58 4 2 44.708099503 43.3202675901 32.5381423675
59 4 2 44.5971057328 44.0308320087 31.792335019
60 4 2 44.4131940054 44.9164312731 31.2870228081
61 4 2 44.1906185657 45.9042812782 31.067791076
62 4 2 43.9671577524 46.9122780368 31.1541496929
63 4 2 43.780670604 47.8564812393 31.5377547855
64 4 2 43.6656461079 48.658765188 32.1831692586
65 4 2 43.650059622 49.2539397461 33.0310927917
66 4 2 43.7528229953 49.5956922441 34.0037669049
67 4 2 43.9820608034 49.6608087557 35.0120624362
68 4 2 44.3343698152 49.4512899858 35.9636034266
69 4 2 44.7951291883 48.9941689109 36.7711869419
70 4 2 45.3398331198 48.3390467958 37.3607313868
71 4 2 45.9363244847 47.5535721712 37.6780288447
72 4 2 46.5477258717 46.7172748502 37.6936859841
73 5 1 35.3580793364 32.2869148645 30.2743970661
74 5 1 40.0688529266 29.9882141085 32.0186958011
75 5 2 34.9900981252 32.3974595138 30.6740860662
76 5 2 34.3422982257 32.3805060313 31.4824905942
77 5 2 33.807770672 32.0802817614 32.3177125367
78 5 2 33.4466490083 31.5300668395 33.1179029484
79 5 2 33.3032612955 30.7859273805 33.8244059141
80 5 2 33.4020897269 29.9216052028 34.3871048792
81 5 2 33.7455391414 29.021796458 34.7689906393
82 5 2 34.3137178294 28.1744318039 34.9495346302
83 5 2 35.0662506084 27.4626617593 34.926560052
84 5 2 35.9459589134 26.9572777568 34.7164402785
85 5 2 36.8840724702 26.7102596929 34.3526064675
86 5 2 37.8064975217 26.7500380995 33.8825004009
87 5 2 38.6405702764 27.0789027766 33.3632502923
88 5 2 39.3216800184 27.6727940832 32.8564637037
89 5 2 39.7991582016 28.4834959097 32.4226121803
90 5 2 40.0408967522 29.4430304467 32.1155194311
91 6 1 36.3361989129 42.504415945 8.70398966404
92 6 1 33.5942223546 40.0877146599 12.8463453362
93 6 2 36.6408952016 42.9438156602 8.85051491753
94 6 2 37.0111853331 43.8346035484 9.22844635044
95 6 2 37.099606643 44.7394575718 9.72530737675
96 6 2 36.9050132837 45.5703446701 10.3128531755
97 6 2 36.4520554382 46.2459736703 10.954573251
98 6 2 35.7889325219 46.6992047604 11.6090192672
99 6 2 34.9829999349 46.8831691033 12.2335829524
100 6 2 34.1146297967 46.775540806 12.7883797296
101 6 2 33.2698852431 46.3805718657 13.239884089
102 6 2 32.5326760008 45.728704611 13.5639853485
103 6 2 31.9771102402 44.8737969652 13.7481852782
104 6 2 31.6607398142 43.8882134407 13.7927372803
105 6 2 31.6193145598 42.8562293069 13.7106232925
106 6 2 31.8635237968 41.8663491246 13.526370519
107 6 2 32.3780220244 41.0032397923 13.273815841
108 6 2 33.1228276228 40.3400133839 12.9930216761
109 7 1 11.5339313743 37.9991148689 4.2583326624
110 7 1 8.97361737572 39.6418041372 -0.352996349729
111 7 2 11.2479227046 38.0810726373 4.72616121339
112 7 2 10.6896345029 38.4524974464 5.51597632224
113 7 2 10.1302016687 39.0734647448 6.12825446936
114 7 2 9.6026999436 39.8832962285 6.50157056764
115 7 2 9.13729463396 40.8040991276 6.59628028206
116 7 2 8.75849112381 41.7478659243 6.39813350482
117 7 2 8.48290127459 42.624496003 5.9195732146
118 7 2 8.31772929846 43.3500080803 5.19860133232
119 7 2 8.26011511355 43.8541948751 4.29531494758
120 7 2 8.29739503279 44.0870223139 3.28642862964
121 7 2 8.40825602516 44.0231900034 2.25828209938
122 7 2 8.56467834148 43.6644372934 1.29897059459
123 7 2 8.73448943968 43.0393847401 0.490315224443
124 7 2 8.88429642598 42.2009254184 -0.0995948058704
125 7 2 8.98252972796 41.2214038599 -0.422608344245
126 7 2 9.00232057667 40.186022042 -0.454901140459
127 8 1 39.5184446489 45.4391175285 4.68750939324
128 8 1 36.6507433713 43.0893012383 0.592067555572
129 8 2 39.2887597636 45.8962794175 4.90111990032
130 8 2 38.8454150487 46.8164385045 5.07490922537
131 8 2 38.4036199864 47.7442024953 4.94254188956
132 8 2 37.9849781843 48.5904557939 4.51587526633
133 8 2 37.6089828921 49.273512286 3.83359132257
134 8 2 37.2912402441 49.7265608103 2.95767086075
135 8 2 37.0420468017 49.9037548168 1.9677441344
136 8 2 36.8654510496 49.7843911574 0.953832763353
137 8 2 36.758884387 49.3747971228 0.00814450370096
138 8 2 36.7133952487 48.7077537267 -0.783331242722
139 8 2 36.7144650165 47.8395078038 -1.34866113249
140 8 2 36.7433313523 46.8446452617 -1.63652441257
141 8 2 36.7786983351 45.809292774 -1.62089066981
142 8 2 36.7986775273 44.8232675649 -1.30339243351
143 8 2 36.7827830473 43.9718908089 -0.713176374735
144 8 2 36.7137988029 43.3282108339 0.0957533348316
145 9 1 22.9702741657 21.8196417645 16.5083283218
146 9 1 25.4335564996 26.4465066848 18.2525623125
147 9 2 23.3110160095 21.4433953696 16.2853591888
148 9 2 24.0228722355 20.9231798462 15.7412208481
149 9 2 24.7879304663 20.6830144887 15.085128998
150 9 2 25.5519254875 20.746363676 14.3881724001
151 9 2 26.2606889935 21.1090272478 13.7251645288
152 9 2 26.8650868838 21.7395233372 13.1678245225
153 9 2 27.3254977048 22.5819578595 12.7782401764
154 9 2 27.6154240393 23.5611191081 12.6032088053
155 9 2 27.7239076755 24.589333101 12.6699717942
156 9 2 27.6565284185 25.5744548294 12.9837316182
157 9 2 27.4348955062 26.4282670294 13.5271776509
158 9 2 27.0946779848 27.0745209495 14.2620639823
159 9 2 26.6823535707 27.4558862208 15.1326954305
160 9 2 26.2509723308 27.5391763668 16.0710040091
161 9 2 25.8553213108 27.3183736617 17.0027531421
162 9 2 25.5469308424 26.8151776306 17.8543041297
163 10 1 49.4215766079 14.6748081244 16.6326547623
164 10 1 49.4644168519 11.1977450251 12.3400811778
165 10 2 49.1467096528 14.4924225233 17.0782613573
166 10 2 48.4620769395 14.1093888379 17.7550281228
167 10 2 47.6147017491 13.6866788595 18.1754107724
168 10 2 46.6863581075 13.2441519964 18.3011011453
169 10 2 45.7662000987 12.8034739129 18.120651494
170 10 2 44.9426357079 12.3861417619 17.650517916
171 10 2 44.2952686704 12.0115247771 16.9335604246
172 10 2 43.8876428035 11.6950988188 16.0351363728
173 10 2 43.7614501577 11.4470357909 15.037143306
174 10 2 43.9327308976 11.2712764988 14.0305542187
175 10 2 44.3904112837 11.1651714558 13.1071256101
176 10 2 45.0973130143 11.1197223764 12.3510341238
177 10 2 45.9935419282 11.1204023462 11.8312040721
178 10 2 47.0019471975 11.1484799113 11.5950251689
179 10 2 48.0351534194 11.1827264001 11.664033084
180 10 2 49.0035246503 11.2013508602 12.0319465245
181 11 1 34.761024417 40.9186839511 9.26920205266
182 11 1 36.3735044245 40.1030779752 4.04879151527
183 11 2 34.3319588166 40.6078108462 9.43242647268
184 11 2 33.4313826547 40.1068644968 9.5395028138
185 11 2 32.478313266 39.735678987 9.3741847302
186 11 2 31.5633886594 39.5113704922 8.94285113006
187 11 2 30.773770049 39.4376677405 8.2761275249
188 11 2 30.1851973422 39.5045721488 7.42609459606
189 11 2 29.8550856496 39.6892691675 6.46154117976
190 11 2 29.8172920512 39.9582077652 5.46169434862
191 11 2 30.0790296141 40.2701585158 4.50899807564
192 11 2 30.6202099404 40.5799715505 3.68159868649
193 11 2 31.3952741714 40.8426918474 3.04622203077
194 11 2 32.3373455555 41.0176567619 2.65209159916
195 11 2 33.3643250855 41.072202318 2.52644193379
196 11 2 34.3863746037 40.9846404422 2.67203627256
197 11 2 35.3141053097 40.7462357739 3.06691468733
198 11 2 36.0667253107 40.3620018694 3.66639567275
199 12 1 19.2123155821 38.1220036575 37.9785005519
200 12 1 17.1631906292 40.6426314645 42.4467791295
201 12 2 19.4761321772 37.6450066629 38.0797737437
202 12 2 20.0831018376 36.8818578634 38.4299761885
203 12 2 20.7798090327 36.3396904525 38.9722893766
204 12 2 21.4918443421 36.0603007331 39.6711435203
205 12 2 22.1434012284 36.0615335237 40.4767005421
206 12 2 22.664185601 36.3356556512 41.3293966824
207 12 2 22.9958229343 36.8500608085 42.165371577
208 12 2 23.09717895 37.5502415329 42.9222889585
209 12 2 22.9481088962 38.3647574151 43.5450184405
210 12 2 22.5512936879 39.211746702 43.9906605051
211 12 2 21.931995549 40.006387776 44.232456679
212 12 2 21.1357554275 40.6686304196 44.2622284971
213 12 2 20.2242420606 41.1304921783 44.0911229477
214 12 2 19.2696310335 41.3422547795 43.7485964541
215 12 2 18.3480261679 41.2769958205 43.2797300007
216 12 2 17.5325228622 40.9330426733 42.7411201214
217 13 1 10.666714479 39.1247839831 14.844964762
218 13 1 7.25780683646 35.4471275399 17.1627617402
219 13 2 10.5992665439 39.6471946508 15.0179371828
220 13 2 10.2469303865 40.5822078172 15.2919072943
221 13 2 9.62659619395 41.3866074405 15.4958110625
222 13 2 8.79114875129 41.9845509821 15.6297554643
223 13 2 7.8130798415 42.3190138235 15.7002240858
224 13 2 6.77788081304 42.3569869077 15.7194861607
225 13 2 5.776250272 42.0924854267 15.7044782628
226 13 2 4.89582714657 41.5470943207 15.675260582
227 13 2 4.21320263296 40.7680008684 15.6531884923
228 13 2 3.78693911257 39.8236936927 15.6589660659
229 13 2 3.65223234747 38.797720206 15.7107589527
230 13 2 3.81770348076 37.7810714864 15.8225386298
231 13 2 4.26461324238 36.8638886847 16.0028089388
232 13 2 4.94856998355 36.1272468988 16.253830983
233 13 2 5.80357585684 35.6357653958 16.5714170345
234 13 2 6.74804234363 35.4317177383 16.9453122336
235 14 1 47.3097969407 32.291519136 24.5491433962
236 14 1 43.8434701507 32.5217332415 28.8444397901
237 14 2 47.6547284489 32.7232144544 24.5039438968
238 14 2 48.1018114884 33.6557848829 24.4416609704
239 14 2 48.2607022938 34.679520234 24.4286358361
240 14 2 48.1211794799 35.7046385772 24.4844549908
241 14 2 47.7002212652 36.641231926 24.6224299579
242 14 2 47.0404579529 37.4074611106 24.8483839785
243 14 2 46.2062862923 37.9370151994 25.1601212379
244 14 2 45.2779998878 38.1851555632 25.5476270085
245 14 2 44.344470651 38.1327936815 25.9939804655
246 14 2 43.4950483637 37.7882310106 26.4768969747
247 14 2 42.811416684 37.1864023275 26.9707592773
248 14 2 42.3601478994 36.3856915189 27.448952435
249 14 2 42.1866350402 35.4626100453 27.8862897099
250 14 2 42.310954427 34.5048231265 28.2613082686
251 14 2 42.7260357667 33.6031592908 28.5582254625
252 14 2 43.3983065917 32.8433315975 28.7683773731
253 15 1 9.63331125045 39.5752883731 26.0677391044
254 15 1 11.310110179 40.3188298656 31.278639455
255 15 2 9.08432215903 39.5975189847 25.9935881404
256 15 2 8.05507997013 39.4855381045 26.0332215889
257 15 2 7.09993503782 39.1954991135 26.3107563672
258 15 2 6.30094595907 38.7679094127 26.8129849118
259 15 2 5.7259381422 38.2558137825 27.5062194228
260 15 2 5.42232170211 37.7199594929 28.339362417
261 15 2 5.41277015513 37.2232593523 29.248564127
262 15 2 5.6931537885 36.8250573729 30.1630422366
263 15 2 6.23291607272 36.575719723 31.0115335
264 15 2 6.97785880753 36.5120439849 31.728789196
265 15 2 7.855082143 36.6539051541 32.2615223745
266 15 2 8.77962920597 37.0024440862 32.5732648201
267 15 2 9.66222969205 37.5399635112 32.6476910314
268 15 2 10.4174366152 38.2315410921 32.4901062481
269 15 2 10.9714145721 39.028212503 32.1269628915
270 15 2 11.268669642 39.8714343962 31.6034494977
271 16 1 19.0741222153 34.1105626873 10.8536025517
272 16 1 16.1533682151 30.8625656772 14.2355698127
273 16 2 19.0718172251 34.6487169515 10.9868926974
274 16 2 18.8344256323 35.6237834466 11.2444593353
275 16 2 18.3147259049 36.4803083827 11.5085184923
276 16 2 17.5608358132 37.1394899071 11.7741864406
277 16 2 16.6422189538 37.540513492 12.0364328153
278 16 2 15.6433533274 37.6460950155 12.290539119
279 16 2 14.6560313957 37.4458791101 12.5325287997
280 16 2 13.7709934434 36.9573830265 12.7595297037
281 16 2 13.0696568436 36.2243999833 12.9700358637
282 16 2 12.6166950826 35.3130075318 13.1640447645
283 16 2 12.4541429434 34.3055447642 13.343057572
284 16 2 12.5975651487 33.2931073253 13.5099423058
285 16 2 13.0346376772 32.3672442876 13.6686724271
286 16 2 13.7262710656 31.6116136985 13.8239646682
287 16 2 14.6101733085 31.0943573728 13.980849115
288 16 2 15.6065276084 30.8618899481 14.1442107281
289 17 1 24.9804687619 6.72258226675 -0.516030732257
290 17 1 26.5632576527 2.11742731538 2.09266976076
291 17 2 25.0691202784 7.19233419193 -0.235218294036
292 17 2 25.1254402582 7.95540684029 0.463350388625
293 17 2 25.0498417727 8.50549900148 1.33806948318
294 17 2 24.8661457784 8.7888880096 2.31755734064
295 17 2 24.6080260304 8.77616047831 3.32088291931
296 17 2 24.3159398103 8.46489325237 4.26494243293
297 17 2 24.0334403527 7.87987427181 5.07203403864
298 17 2 23.8032070845 7.07084321739 5.67694015233
299 17 2 23.6631555091 6.10795787169 6.03287185706
300 17 2 23.6429813096 5.07539942471 6.11573358785
301 17 2 23.7614536668 4.06369958343 5.92631937797
302 17 2 24.0247044984 3.16148884865 5.49024048497
303 17 2 24.4256695509 2.44741808176 4.85559099298
304 17 2 24.944732288 1.98298968895 4.08856416548
305 17 2 25.5515118848 1.80695184121 3.26741910631
306 17 2 26.2076323593 1.93176668218 2.47534765143
307 18 1 24.545277475 9.86992824138 5.4605435987
308 18 1 20.3328506601 6.77322621267 3.67619835859
309 18 2 24.653753886 10.317198179 5.15140922789
310 18 2 24.8532443642 10.9982831043 4.39657356051
311 18 2 25.0176378631 11.4290879601 3.46876325396
312 18 2 25.1142745844 11.5761450934 2.44774143498
313 18 2 25.1166705791 11.4318496978 1.42176721056
314 18 2 25.0069316885 11.0151529711 0.479551086167
315 18 2 24.777384549 10.3698347646 -0.297830759646
316 18 2 24.4312759986 9.56051316608 -0.844326352273
317 18 2 23.9824771365 8.66675473448 -1.11492838198
318 18 2 23.4542190092 7.77582222023 -1.08977649989
319 18 2 22.8769751629 6.97472079899 -0.775967535701
320 18 2 22.2856840612 6.34226778236 -0.206908640648
321 18 2 21.7165645375 5.94190863066 0.560727685072
322 18 2 21.2038145451 5.81593406872 1.45216913921
323 18 2 20.776494105 5.98162539941 2.38135891294
324 18 2 20.4558765631 6.429679359 3.25879953904
325 19 1 33.3538771804 46.0040319313 11.2056466362
326 19 1 32.7456678339 41.3427684299 14.1074900197
327 19 2 33.2281158525 46.468605045 11.4808511029
328 19 2 32.7948425671 47.2209471558 12.04627627
329 19 2 32.1451783362 47.7595264364 12.6473742294
330 19 2 31.3450994531 48.0313377897 13.2469093662
331 19 2 30.4742921047 48.0076913025 13.8077885125
332 19 2 29.6188891884 47.6868272538 14.2964418908
333 19 2 28.8636195288 47.0940765089 14.6858829094
334 19 2 28.2840850718 46.2795516789 14.9581679176
335 19 2 27.9398699692 45.3135794901 15.1060317224
336 19 2 27.8691096428 44.2802906905 15.1335497905
337 19 2 28.0850148422 43.2699517575 15.0557667813
338 19 2 28.5746675206 42.3707373494 14.8973252656
339 19 2 29.3001982802 41.660693421 14.6902196216
340 19 2 30.2022380665 41.2006235436 14.4708798327
341 19 2 31.205329499 41.0285468218 14.276850992
342 19 2 32.2248046097 41.1562325539 14.1433711673
343 20 1 20.2235384381 19.6065423969 21.366984291
344 20 1 20.2620671643 14.0844640169 21.2148101659
345 20 2 20.665454696 19.8366044489 21.6102188717
346 20 2 21.4415546051 20.1149407191 22.2376325015
347 20 2 22.1028768874 20.1648105773 23.0336324057
348 20 2 22.6033156039 19.9701477078 23.9197009524
349 20 2 22.911428923 19.5371742995 24.8091109936
350 20 2 23.0133049589 18.89383391 25.6148308133
351 20 2 22.9138298028 18.087244485 26.2574568351
352 20 2 22.636242169 17.1794036834 26.6724510468
353 20 2 22.2200152481 16.2415379565 26.816023467
354 20 2 21.7172588312 15.3476104473 26.6691234851
355 20 2 21.1879696415 14.5675794476 26.2391762739
356 20 2 20.6945627938 13.9610218869 25.5594060044
357 20 2 20.2961828232 13.5717030543 24.6858075515
358 20 2 20.0433128188 13.4235875095 23.6920427114
359 20 2 19.9731730254 13.5186547772 22.662726125
360 20 2 20.1063283174 13.8367189187 21.6857128798
361 21 1 42.4462061949 24.2095616639 8.60247037892
362 21 1 43.1024186764 24.0761897724 14.086044777
363 21 2 41.9787800954 24.4520408296 8.42898180962
364 21 2 41.004258943 24.7610659645 8.26086875008
365 21 2 39.9756573053 24.8708532064 8.31896731729
366 21 2 38.9850478624 24.7859561355 8.61040415489
367 21 2 38.1210404078 24.5286732865 9.12103774682
368 21 2 37.4607053019 24.1370156975 9.81674737872
369 21 2 37.0625487148 23.6612423044 10.6465431499
370 21 2 36.9611799455 23.1592789743 11.5472135663
371 21 2 37.1641568768 22.6914387169 12.4490870996
372 21 2 37.651297094 22.3149243149 13.2823825605
373 21 2 38.3765174586 22.0786144436 13.9835694676
374 21 2 39.2720344629 22.0186085098 14.5011586812
375 21 2 40.2545425158 22.1549362879 14.8003955006
376 21 2 41.2328070245 22.4897322591 14.8664274623
377 21 2 42.1159801839 23.007041059 14.7056581023
378 21 2 42.8218815113 23.6742717672 14.3451632906
379 22 1 43.1027799842 40.9829057124 35.4464181441
380 22 1 38.1005709406 38.8931175811 36.5088122857
381 22 2 43.1009381118 41.480440376 35.2018011902
382 22 2 42.9474162396 42.3067800357 34.5959597814
383 22 2 42.59933699 42.9400554947 33.8534956138
384 22 2 42.0736874214 43.3311657981 33.0508903105
385 22 2 41.4036396524 43.4530826977 32.2701071985
386 22 2 40.6355273116 43.3033142044 31.5911205701
387 22 2 39.8246223512 42.9041317269 31.0846262404
388 22 2 39.0300971563 42.3005400915 30.8055978125
389 22 2 38.3096311401 41.5561754733 30.7882759804
390 22 2 37.7141534197 40.7475051283 31.0430475815
391 22 2 37.2832007631 39.9568576075 31.555498864
392 22 2 37.0413139183 39.2649187301 32.2877292617
393 22 2 36.9958007902 38.7433772857 33.1818059297
394 22 2 37.1360703439 38.4483907938 34.1650441679
395 22 2 37.4345979499 38.4154668953 35.1566324375
396 22 2 37.8494341801 38.656226926 36.0749981168
397 23 1 2.73942797623 34.3212585067 52.6702302394
398 23 1 0.872725880664 37.3794731753 48.4653833469
399 23 2 2.88727550058 34.6087993834 53.1206111247
400 23 2 3.28700649165 35.273379664 53.8076323736
401 23 2 3.80323956608 36.0610297925 54.2395591026
402 23 2 4.37546478874 36.9136631696 54.3774889036
403 23 2 4.93806868986 37.7672701468 54.2093164026
404 23 2 5.42631475739 38.5577523345 53.7508366324
405 23 2 5.7822439971 39.226764999 53.0443053576
406 23 2 5.95995773993 39.7270350288 52.1545875743
407 23 2 5.92980118307 40.0266697528 51.1632452392
408 23 2 5.68106634591 40.1120638717 50.1611031153
409 23 2 5.22296807389 39.9891395445 49.2399703376
410 23 2 4.58380412996 39.6828066 48.4842722556
411 23 2 3.80837592911 39.2346920723 47.9633552886
412 23 2 2.95390500917 38.6993460077 47.7251661845
413 23 2 2.08481744051 38.1392693741 47.7918818024
414 23 2 1.26687156201 37.6192172646 48.1578877509
415 24 1 5.20814381833 29.4567982613 10.8478318036
416 24 1 4.96061728724 34.8551764961 11.9942323063
417 24 2 5.42228637871 29.1419957706 11.2508503437
418 24 2 5.99592852384 28.7125295155 11.9991440269
419 24 2 6.74222049513 28.5303820349 12.6943566563
420 24 2 7.5859630163 28.6205409042 13.2888479913
421 24 2 8.44307445389 28.9831737027 13.7441582682
422 24 2 9.22825463344 29.5936127393 14.0345137044
423 24 2 9.86275972242 30.4046034468 14.1491757106
424 24 2 10.2815795201 31.350611509 14.0934196837
425 24 2 10.4393629635 32.3537961388 13.8880541689
426 24 2 10.3145517557 33.3311050578 13.5675242165
427 24 2 9.91134534702 34.2018444895 13.1767718074
428 24 2 9.25931816607 34.8950341813 12.7671395116
429 24 2 8.41072398993 35.3558770647 12.3916907506
430 24 2 7.43573315189 35.5507538621 12.1003732077
431 24 2 6.41603670314 35.4702873934 11.9354662309
432 24 2 5.4374004918 35.1301972815 11.9277271827
433 25 1 21.3107272668 17.4983001875 5.29359400376
434 25 1 26.5135486497 16.7528093087 3.59274595988
435 25 2 21.2590625835 17.760885486 5.77914658546
436 25 2 21.3188162425 18.0915262422 6.759226277
437 25 2 21.5881011524 18.1992845881 7.75387384642
438 25 2 22.056383689 18.0874357864 8.67128941345
439 25 2 22.6949921262 17.7792717038 9.42671258842
440 25 2 23.4597299874 17.3159778206 9.95014815523
441 25 2 24.2949044361 16.7528792837 10.1927459482
442 25 2 25.138402529 16.1543981673 10.1312534142
443 25 2 25.9273526449 15.5881815732 9.77013502046
444 25 2 26.6038550651 15.1189357783 9.14116533071
445 25 2 27.1202593776 14.8025284303 8.30053283826
446 25 2 27.4435076851 14.6808963609 7.32371853524
447 25 2 27.5581477438 14.7782231558 6.29861602179
448 25 2 27.4677413945 15.0987348856 5.31752023937
449 25 2 27.1945399096 15.6263149102 4.46871503355
450 25 2 26.77745585 16.3259728684 3.82842631741
451 26 1 46.1543753644 13.3627328578 41.9948959391
452 26 1 42.7172701239 12.0674279164 46.1212119396
453 26 2 46.6876562647 13.4064355088 42.1400963101
454 26 2 47.5990122967 13.6278858905 42.580368865
455 26 2 48.3282877222 14.000637115 43.214926892
456 26 2 48.810761757 14.4764482124 43.998682349
457 26 2 49.0042089042 14.9976845812 44.872948247
458 26 2 48.892747695 15.5025712275 45.7707878119
459 26 2 48.4882882425 15.9308233912 46.6231155932
460 26 2 47.8294466665 16.2291413402 47.3649944177
461 26 2 46.9780253374 16.356068499 47.9415542393
462 26 2 46.0133797554 16.2857701044 48.3129933973
463 26 2 45.0251855089 16.0103879753 48.4582064313
464 26 2 44.1052645838 15.5407567648 48.3767077872
465 26 2 43.3392160356 14.9054164108 48.0886760747
466 26 2 42.7986138635 14.1480107964 47.6331148405
467 26 2 42.5344832325 13.3233097273 47.0642974995
468 26 2 42.5726496654 12.4922168096 46.446820458
469 27 1 52.2735816728 8.34004751252 33.9259099015
470 27 1 49.7972833171 4.56626669565 37.1109555623
471 27 2 52.0262147829 8.83612950812 33.9162215861
472 27 2 51.3712650979 9.63635904928 33.8520063008
473 27 2 50.5144583072 10.2096301954 33.7486025894
474 27 2 49.5282224651 10.5055785199 33.6336962615
475 27 2 48.4967827382 10.4991168299 33.5360215595
476 27 2 47.5084845062 10.1927217972 33.4827421091
477 27 2 46.6477409171 9.61620821628 33.4969750274
478 27 2 45.9873388539 8.82401146512 33.5956838597
479 27 2 45.5818046051 7.89022586629 33.7881323974
480 27 2 45.4624339391 6.90185118738 34.0750403083
481 27 2 45.6344395786 5.95086284471 34.448517541
482 27 2 46.0764760747 5.12582859 34.8927834814
483 27 2 46.7425853879 4.50383579648 35.3856053143
484 27 2 47.56638584 4.14346515089 35.9003244844
485 27 2 48.4671226272 4.07945118042 36.4082865528
486 27 2 49.3570284043 4.31951629344 36.8814529723
487 28 1 19.6637917012 35.8316257366 36.3204822825
488 28 1 24.477990968 34.5121173627 38.6869932442
489 28 2 19.6860213763 35.9061717932 35.7715466623
490 28 2 19.9079985845 36.1866309716 34.7991687628
491 28 2 20.3563634138 36.6158900088 33.9696172755
492 28 2 21.0026103526 37.1411031043 33.3532033645
493 28 2 21.8001974636 37.7006785019 33.0008112735
494 28 2 22.6887885577 38.2298924134 32.9392603628
495 28 2 23.5997526757 38.6667884188 33.1688605967
496 28 2 24.4624196171 38.9578246285 33.6633842908
497 28 2 25.2105213401 39.0627538836 34.3724566952
498 28 2 25.7882321162 38.9582921764 35.2261475186
499 28 2 26.1552568964 38.640240926 36.1413448875
500 28 2 26.290504097 38.1238696674 37.029330771
501 28 2 26.1940080414 37.4425242744 37.8038673923
502 28 2 25.8869258311 36.6445875719 38.3890575718
503 28 2 25.409608933 35.7890693714 38.7262625519
504 28 2 24.8179252507 34.9402278839 38.7794467631
505 29 1 8.55073292444 26.8659530799 41.4243687922
506 29 1 10.6230979229 22.3308754022 43.8026801326
507 29 2 8.07348299588 27.0462353247 41.6414227163
508 29 2 7.11506980637 27.1593371189 42.0183871092
509 29 2 6.14968195173 26.9706406485 42.3437637269
510 29 2 5.26806850353 26.494079474 42.606627163
511 29 2 4.55334272011 25.769825254 42.8017499205
512 29 2 4.0734064952 24.8606262063 42.930078884
513 29 2 3.87476128181 23.8460877754 42.9986490141
514 29 2 3.97826960909 22.8154168092 43.0199421293
515 29 2 4.37725351853 21.8592905929 43.0107492217
516 29 2 5.03810324205 21.0615918569 42.9906400027
517 29 2 5.90334064252 20.4917630904 42.9801791765
518 29 2 6.89685819234 20.1984770438 42.999052022
519 29 2 7.93085597114 20.2052003379 43.0642701324
520 29 2 8.91384439391 20.5080545438 43.1886208537
521 29 2 9.75898324206 21.0761696913 43.3795017528
522 29 2 10.3919969173 21.8544979848 43.6382463482
523 30 1 19.8623234587 22.5377481784 23.1716511249
524 30 1 16.4369586346 19.4710989516 26.234416118
525 30 2 19.8079077827 23.0854976544 23.2379160008
526 30 2 19.4782411881 24.0638093135 23.325530185
527 30 2 18.876866465 24.9060329421 23.3751065213
528 30 2 18.0552865437 25.5367355001 23.4010049278
529 30 2 17.0850754697 25.8997635277 23.4197435027
530 30 2 16.0513546207 25.9633613831 23.4484929436
531 30 2 15.0450341208 25.7230656844 23.5035114844
532 30 2 14.1545266255 25.2021121349 23.5986630009
533 30 2 13.4576887442 24.4493176508 23.7441533554
534 30 2 13.0147246191 23.53463083 23.9456001594
535 30 2 12.8626984776 22.5427563241 24.203520744
536 30 2 13.0121563278 21.5654342358 24.5132850059
537 30 2 13.4461647176 20.6930782539 24.8655374291
538 30 2 14.1218541739 20.0065346873 25.2470498155
539 30 2 14.9743266402 19.5697135397 25.6419269993
540 30 2 15.9225707612 19.4237632837 26.0330556495
541 31 1 25.3665016793 22.9697833527 6.49197393634
542 31 1 22.9182154278 21.6384677265 11.2618255268
543 31 2 25.4556454658 23.5120408902 6.41854549186
544 31 2 25.3949391299 24.5432903014 6.33923973056
545 31 2 25.0487520581 25.5196684276 6.35627725409
546 31 2 24.4535455557 26.3577597137 6.48582348855
547 31 2 23.6684783836 26.9867530806 6.73378899177
548 31 2 22.770014595 27.3548961656 7.09529072172
549 31 2 21.8449540419 27.434212412 7.55509711277
550 31 2 20.9825208 27.2230510575 8.08901639218
551 31 2 20.2662306334 26.7462375967 8.6661015955
552 31 2 19.766278755 26.0528110037 9.25147129972
553 31 2 19.5331417213 25.2115539606 9.80948897169
554 31 2 19.5929766287 24.3047235001 10.3070111429
555 31 2 19.9452369643 23.4205534963 10.7164083481
556 31 2 20.5627224188 22.6452123835 11.018083477
557 31 2 21.3940581225 22.0549491334 11.2022579988
558 31 2 22.3683773269 21.7091433651 11.269863249
559 32 1 37.3445585643 1.16467121852 44.1210455511
560 32 1 33.75607294 3.99620841122 47.2231672625
561 32 2 37.6404184174 1.47192325065 43.7668637841
562 32 2 37.9824792918 2.13102024022 43.044343523
563 32 2 38.0267340253 2.86057379689 42.3100117603
564 32 2 37.7724775303 3.60989901911 41.641195375
565 32 2 37.2462132198 4.32650887087 41.1092496945
566 32 2 36.4992372922 4.96089823474 40.7730546472
567 32 2 35.6029632199 5.47105617101 40.6736480147
568 32 2 34.6424126022 5.82629510254 40.8304849473
569 32 2 33.7084656735 6.01004790543 41.2396646792
570 32 2 32.8895778133 6.02137795803 41.8742860731
571 32 2 32.2637170744 5.87506451158 42.6868995864
572 32 2 31.8912576035 5.60025560086 43.613832171
573 32 2 31.8094766989 5.23781127884 44.5809909006
574 32 2 32.0291570845 4.83657933195 45.5106163435
575 32 2 32.5336040935 4.44894293498 46.3283701268
576 32 2 33.2801673423 4.12604606468 46.9701106802
577 33 1 19.7817440116 16.6118931545 7.20175990262
578 33 1 17.3219956841 14.4500438604 11.650808886
579 33 2 20.3024100289 16.7840799778 7.28324722867
580 33 2 21.1811095323 17.2178763583 7.61963672643
581 33 2 21.8728335807 17.7505547471 8.17750910086
582 33 2 22.321325565 18.3199981041 8.91780580778
583 33 2 22.4924988287 18.8607383609 9.78484081269
584 33 2 22.3775435752 19.3099236596 10.7113762239
585 33 2 21.9937298579 19.6130471323 11.6247508469
586 33 2 21.3828334603 19.728915056 12.4535030577
587 33 2 20.6073281453 19.6334015506 13.1338843389
588 33 2 19.7446913387 19.3216475883 13.615669787
589 33 2 18.8803422689 18.8085038809 13.8667359778
590 33 2 18.0998562324 18.1271772772 13.8759889308
591 33 2 17.4811646345 17.3262040475 13.6543752956
592 33 2 17.0874517499 16.4650259324 13.2338845946
593 33 2 16.9613956447 15.6085721867 12.6646334628