LAMMPS input file for bananas

4320 atoms

2 atom types

0 63.4960420787 xlo xhi
0 63.4960420787 ylo yhi
0 63.4960420787 zlo zhi

Masses

 1 1
 2 1

Atoms

1 1 1 41.0400851116 51.72322779 40.952341273
2 1 1 41.1601269217 53.8142708769 46.0642019747
3 1 2 41.2176774911 52.066875432 40.5551652
4 1 2 41.3990702642 52.8595681337 39.9131488811
5 1 2 41.3832639502 53.791100978 39.4598865603
6 1 2 41.1863238105 54.7854265548 39.2454541935
7 1 2 40.8408249709 55.760774064 39.2981590247
8 1 2 40.3928832852 56.6371025058 39.6219594563
9 1 2 39.8979519991 57.3433962036 40.1961042514
10 1 2 39.4157673348 57.8241376935 40.9770239532
11 1 2 39.004903694 58.0443679921 41.902302125
12 1 2 38.7174347574 57.9928730153 42.8963644415
13 1 2 38.5941871087 57.6832057111 43.8773670863
14 1 2 38.6610189998 57.1524507455 44.7646565971
15 1 2 38.9264634407 56.4578443337 45.4861212135
16 1 2 39.3809504384 55.6715573124 45.9847636708
17 1 2 39.9976792759 54.8741169608 46.2238963488
18 1 2 40.7350613263 54.1470671541 46.1904852498
19 2 1 25.2555367832 41.1376057215 44.4427068871
20 2 1 26.5411076399 38.5937183716 49.1749300206
21 2 2 25.3250927588 41.6876300803 44.4468006609
22 2 2 25.3292880104 42.7030018099 44.6528410985
23 2 2 25.1837287313 43.6222295049 45.1081244741
24 2 2 24.9177592576 44.3633476578 45.781514505
25 2 2 24.5716989928 44.8606249698 46.6219950694
26 2 2 24.1931674018 45.070555583 47.5633201905
27 2 2 23.8327436241 44.9758245228 48.5300521791
28 2 2 23.5393563206 44.5868859123 49.4444375785
29 2 2 23.3558239566 43.9410101062 50.2334941833
30 2 2 23.3149520133 43.0988865978 50.835663173
31 2 2 23.4365428559 42.1390923342 51.2064200334
32 2 2 23.7255908009 41.1509296369 51.3223328478
33 2 2 24.1718268973 40.2262865348 51.1831980529
34 2 2 24.7506549145 39.4512614152 50.8120589932
35 2 2 25.4253932225 38.8983153862 50.253105582
36 2 2 26.1506182248 38.6196676403 49.5676465089
37 3 1 38.4995010617 25.9657390712 44.573065128
38 3 1 36.3455199424 28.3096861442 49.0879592041
39 3 2 38.5503732962 26.3033546935 44.1362478946
40 3 2 38.4201133395 26.9838133209 43.3658853752
41 3 2 38.012818761 27.6877191242 42.7239525458
42 3 2 37.3708948631 28.367371829 42.2773476628
43 3 2 36.5581327837 28.9772817658 42.0751653628
44 3 2 35.6538951043 29.4783161323 42.1442218169
45 3 2 34.7458821626 29.8412658431 42.4866105088
46 3 2 33.9221384017 30.0495078603 43.0795114194
47 3 2 33.2630273539 30.1005203389 43.8772710103
48 3 2 32.8339067198 30.0061124857 44.815563422
49 3 2 32.6791711885 29.7913481825 45.8172536039
50 3 2 32.8182059803 29.4922614796 46.7994279683
51 3 2 33.2436199357 29.1525721887 47.6809517418
52 3 2 33.9219192001 28.8197009388 48.3898641836
53 3 2 34.7965600986 28.5404469129 48.8699376144
54 3 2 35.7931029412 28.3567222271 49.0858024189
55 4 1 18.5494852095 40.844486089 26.695938259
56 4 1 18.925564813 45.1919872231 23.3083448533
57 4 2 18.421258594 40.3655028451 26.447916939
58 4 2 18.0079371789 39.5971861285 25.8890745265
59 4 2 17.4111011825 39.0559255199 25.2377115262
60 4 2 16.6950639148 38.7923832758 24.5367934653
61 4 2 15.9350035632 38.8319083655 23.8338026828
62 4 2 15.2101109014 39.1722259812 23.1764104403
63 4 2 14.5963712621 39.7836448803 22.6081318147
64 4 2 14.1596386774 40.6117636626 22.1643594148
65 4 2 13.9496334592 41.582429313 21.8691374395
66 4 2 13.995410326 42.6084960501 21.7329701138
67 4 2 14.3027101429 43.5977684318 21.7518642564
68 4 2 14.853436657 44.4614047228 21.9076932476
69 4 2 15.6073059229 45.1220145821 22.1698492223
70 4 2 16.5055180758 45.520712985 22.498032895
71 4 2 17.4761167831 45.622487436 22.8459267319
72 4 2 18.4405478708 45.4193892644 23.1654166706
73 5 1 38.3902190998 4.43586967929 19.9087209126
74 5 1 34.8151304281 0.762824227733 21.9691745426
75 5 2 38.2827613959 4.96422306048 20.0378608929
76 5 2 37.8660493284 5.8984235032 20.2023923389
77 5 2 37.1979001122 6.68742356572 20.2695156391
78 5 2 36.3331007866 7.25772068043 20.2512580745
79 5 2 35.3443625228 7.55574646886 20.1674291637
80 5 2 34.3156931948 7.55274935624 20.0438150781
81 5 2 33.3347402865 7.24741520065 19.9098283016
82 5 2 32.4848020576 6.66598707356 19.7958267613
83 5 2 31.8372351299 5.85987327401 19.730346783
84 5 2 31.4449505222 4.90096159956 19.7375020823
85 5 2 31.3375909518 3.87506696567 19.834785863
86 5 2 31.5188289808 2.87410960552 20.0314763589
87 5 2 31.9660322711 1.98773678644 20.3277911474
88 5 2 32.6323264622 1.2951517011 20.7148673179
89 5 2 33.4508676433 0.857894308191 21.1755693023
90 5 2 34.3409349975 0.714232129673 21.6860507364
91 6 1 28.4157212543 28.1075724409 64.4307514973
92 6 1 23.0504295797 28.8480177829 63.342920167
93 6 2 28.7516469594 28.4982763081 64.2260908101
94 6 2 29.2632931117 29.1855572268 63.6435848747
95 6 2 29.5746024406 29.7755662779 62.8508517339
96 6 2 29.646735499 30.2304253574 61.9227622712
97 6 2 29.4626531179 30.5245749204 60.9465247372
98 6 2 29.0286694805 30.6471036645 60.0137359505
99 6 2 28.3738766019 30.6027430665 59.2120324926
100 6 2 27.5474926689 30.4114361205 58.6171028673
101 6 2 26.6143759349 30.1065195876 58.2857886966
102 6 2 25.6491130622 29.7316854389 58.2509037582
103 6 2 24.7292207483 29.3369984497 58.5182430976
104 6 2 23.9280802851 28.9743329281 59.0660548252
105 6 2 23.3082490509 28.6926445115 59.8470227428
106 6 2 22.9157585723 28.5335079904 60.7925790885
107 6 2 22.7759188738 28.5273278775 61.8191543055
108 6 2 22.8910115365 28.690567118 62.835794183
109 7 1 39.2755110385 50.009933631 45.7372635738
110 7 1 36.8250576367 45.6478162431 48.0793141882
111 7 2 39.808569495 50.0791993547 45.8730300261
112 7 2 40.7238248755 50.1866603536 46.3465379281
113 7 2 41.46609302 50.2417111054 47.0672718788
114 7 2 41.9739934104 50.2211825765 47.9700818167
115 7 2 42.2075075232 50.1087945823 48.9732219411
116 7 2 42.1516264107 49.8966396834 49.9858016225
117 7 2 41.8177187265 49.5859039267 50.9160698414
118 7 2 41.2424945029 49.1867587412 51.6797780479
119 7 2 40.4846591302 48.7174338386 52.2078591922
120 7 2 39.6195625164 48.2025556247 52.4527230011
121 7 2 38.7323311454 47.6709025676 52.3925937051
122 7 2 37.9101090247 47.1527821174 52.0334948405
123 7 2 37.2341147425 46.6772682636 51.408700221
124 7 2 36.7722386105 46.2695515181 50.5757011183
125 7 2 36.572854643 45.9486428676 49.6109660859
126 7 2 36.6604113954 45.7256409729 48.6029710555
127 8 1 54.9678475519 14.5900850441 27.0485414458
128 8 1 52.2621010145 11.2913330368 30.5578379467
129 8 2 54.924298489 15.1320968975 27.1567459649
130 8 2 54.6126702315 16.0975021117 27.3672943269
131 8 2 54.0282509981 16.924072195 27.5879435239
132 8 2 53.2249165988 17.5366707841 27.8177843879
133 8 2 52.2764963759 17.8796644453 28.0550699549
134 8 2 51.2700438566 17.9219935135 28.2973746962
135 8 2 50.2979020571 17.6600030978 28.5418155987
136 8 2 49.4492866629 17.1177762147 28.785314944
137 8 2 48.8021542579 16.3449386859 29.0248808341
138 8 2 48.4160967902 15.4121358769 29.2578798949
139 8 2 48.3269099251 14.4045935611 29.4822773013
140 8 2 48.5433303657 13.4143498179 29.6968222459
141 8 2 49.0462395262 12.5318660085 29.9011619469
142 8 2 49.7904061399 11.8377814637 30.0958738033
143 8 2 50.7086089676 11.3955634251 30.2824127662
144 8 2 51.7177638347 11.2457221755 30.4629787243
145 9 1 23.0139116922 12.8867153303 34.1885377235
146 9 1 21.8626930012 11.5604123939 28.950827622
147 9 2 23.0127773687 12.4604820455 34.5430874215
148 9 2 22.8011546928 11.6186381288 35.1087416216
149 9 2 22.3417218361 10.7738977657 35.4944684424
150 9 2 21.6842341299 9.98932431273 35.6544822674
151 9 2 20.8964990755 9.32249707346 35.5635706165
152 9 2 20.0581958721 8.82026309879 35.2193921962
153 9 2 19.2536128704 8.51446720347 34.6426903018
154 9 2 18.5639649148 8.41904939635 33.8754021221
155 9 2 18.0599908276 8.52877428581 32.9768362764
156 9 2 17.7955057541 8.81970827177 32.018266992
157 9 2 17.8024960561 9.2514010293 31.0764376497
158 9 2 18.0882038407 9.77057244767 30.2265658292
159 9 2 18.6344668612 10.31596897 29.5354874277
160 9 2 19.3993739577 10.8239466914 29.0555647469
161 9 2 20.3210851469 11.2342723305 28.8199138087
162 9 2 21.323468172 11.4956133323 28.8393859188
163 10 1 35.9590244505 44.2959395006 55.1718507906
164 10 1 33.5632202378 47.0014090473 59.3501934966
165 10 2 36.2142616835 44.6187633083 54.8003399132
166 10 2 36.4869807607 45.3387275587 54.106995991
167 10 2 36.479682982 46.1634956971 53.4799758387
168 10 2 36.2007600244 47.03141992 52.9876755866
169 10 2 35.683361474 47.8769188622 52.6862120067
170 10 2 34.9823733298 48.6364551627 52.6143076179
171 10 2 34.1694152916 49.2543267256 52.7897612327
172 10 2 33.3263128156 49.6877438173 53.2078256425
173 10 2 32.5376389432 49.9107292362 53.8416403135
174 10 2 31.8830056938 49.9164860651 54.6446796518
175 10 2 31.4298076425 49.7180171924 55.5549936878
176 10 2 31.2270790844 49.3469401332 56.5008546496
177 10 2 31.3010246896 48.8506051775 57.4072947581
178 10 2 31.6526310179 48.2877795378 58.2029393398
179 10 2 32.2575765962 47.7232908747 58.8265124371
180 10 2 33.0684487559 47.2221184289 59.2324219485
181 11 1 7.69947281726 33.7030594542 37.3177767205
182 11 1 11.9732891658 35.1696546779 34.1394779099
183 11 2 7.81642109326 33.6515381127 37.8572674435
184 11 2 8.21175093507 33.4214095343 38.7868938011
185 11 2 8.81474680361 33.0485840938 39.542438098
186 11 2 9.58272070686 32.5815708466 40.0577678197
187 11 2 10.4579473459 32.0774638152 40.2886453683
188 11 2 11.3729256215 31.5967380212 40.216760201
189 11 2 12.2565311791 31.1977373488 39.8513977876
190 11 2 13.0404992035 30.931356656 39.2285932642
191 11 2 13.6656465745 30.8364028441 38.4078469274
192 11 2 14.0872662496 30.9360577123 37.4667009409
193 11 2 14.2792021922 31.2357649988 36.4936715747
194 11 2 14.2362334238 31.7227341985 35.5801811836
195 11 2 13.9745499024 32.3671063836 34.812225304
196 11 2 13.5302768514 33.1246757646 34.2625343906
197 11 2 12.9561820417 33.9409189305 33.9839446298
198 11 2 12.3168661504 34.7559645112 34.0045820624
199 12 1 51.9194127232 23.9131547709 5.18366167669
200 12 1 51.6640518576 20.3199167302 9.37190979161
201 12 2 51.745251142 24.4254594742 5.30446408848
202 12 2 51.2316309324 25.2699629074 5.61504136206
203 12 2 50.5210616292 25.9023545616 6.02567754203
204 12 2 49.6849585493 26.2672561939 6.51682767147
205 12 2 48.8061790776 26.333670562 7.06160816216
206 12 2 47.9714704382 26.0978067398 7.62824716178
207 12 2 47.2635629166 25.5834256505 8.18298047337
208 12 2 46.7536292153 24.8396743217 8.69312907158
209 12 2 46.4947972522 23.9366062651 9.13007770854
210 12 2 46.5173076929 22.9587962867 9.47188311719
211 12 2 46.8257575949 21.9976317187 9.70527408146
212 12 2 47.3986813981 21.1429827085 9.82686107209
213 12 2 48.190507453 20.4750107953 9.8434451932
214 12 2 49.1357117552 20.0568623997 9.77139827983
215 12 2 50.1547902826 19.9289131967 9.63517064891
216 12 2 51.1615055754 20.10508798 9.46506251824
217 13 1 47.5223833028 51.3754523101 40.1464936201
218 13 1 45.0720964068 49.028319473 35.7870151383
219 13 2 47.7369776255 51.019574033 40.5134834246
220 13 2 47.9251927575 50.255044295 41.1869218814
221 13 2 47.828498608 49.4114362834 41.7805764741
222 13 2 47.4627303839 48.5519452669 42.2288384621
223 13 2 46.8682486748 47.7412142075 42.4793512521
224 13 2 46.106260693 47.0394417275 42.4977825617
225 13 2 45.2532414 46.4968951661 42.2709537151
226 13 2 44.393963018 46.1493288453 41.8080408441
227 13 2 43.6137682685 46.0147251595 41.1397385086
228 13 2 42.990791611 46.091655528 40.3154619689
229 13 2 42.5888374964 46.3594106066 39.3988431175
230 13 2 42.4515647614 46.7798878886 38.4619306014
231 13 2 42.5985072426 47.3010646467 37.5786227813
232 13 2 43.0232933189 47.8617396657 36.8179320927
233 13 2 43.6942266685 48.3971115692 36.2376947477
234 13 2 44.5571753033 48.8446852924 35.8792991183
235 14 1 6.46030112897 19.9826899388 51.6353608014
236 14 1 10.6826487646 22.383856858 49.0039792381
237 14 2 6.23114107644 20.2884681295 52.037065863
238 14 2 6.02559105457 20.8839374045 52.8596322993
239 14 2 6.1255944338 21.4776132524 53.7028394643
240 14 2 6.52265740875 22.0329899533 54.4821646372
241 14 2 7.18120998589 22.5170526525 55.1189077703
242 14 2 8.04184809336 22.9032865756 55.5473647878
243 14 2 9.02674810329 23.1740937799 55.7208163364
244 14 2 10.0467602476 23.3223971595 55.6157861298
245 14 2 11.0095343809 23.3522855047 55.2341807496
246 14 2 11.8279374496 23.2786408198 54.6031158649
247 14 2 12.4279954368 23.125781868 53.7724447122
248 14 2 12.7556358961 22.9252475811 52.8102141055
249 14 2 12.7816165108 22.7129223704 51.7964621518
250 14 2 12.5041904526 22.5257653585 50.8159229907
251 14 2 11.9492656006 22.3984416536 49.9503035051
252 14 2 11.1680431072 22.3601627182 49.2708359561
253 15 1 31.0011825847 42.9642001685 52.9306044774
254 15 1 25.484175296 43.1457377699 53.1489293192
255 15 2 31.2575729 43.4166386096 53.1228154325
256 15 2 31.5881063649 44.3746028828 53.3384588674
257 15 2 31.6902649805 45.405325164 53.3634630159
258 15 2 31.5436898137 46.4195178805 53.2105615267
259 15 2 31.1506933506 47.3294000854 52.9087036718
260 15 2 30.5360487201 48.0566984558 52.5004156978
261 15 2 29.7447316889 48.5397816976 52.0379246721
262 15 2 28.8378212411 48.739278073 51.5783981255
263 15 2 27.8869323915 48.6416640288 51.1787333845
264 15 2 26.9676886688 48.2604968327 50.8903715318
265 15 2 26.152829233 47.6351788642 50.7546086895
266 15 2 25.5055788952 46.8273661933 50.7988319878
267 15 2 25.0738853454 45.9153487941 51.0340233011
268 15 2 24.8860488484 44.9869146234 51.4537582796
269 15 2 24.9481427503 44.1313479828 52.034791912
270 15 2 25.2434599096 43.4312914931 52.7391772454
271 16 1 30.1655938324 38.1065410957 50.5380259852
272 16 1 29.9178749082 35.84280384 45.504923559
273 16 2 30.0481485445 38.6480593353 50.5566321294
274 16 2 29.9862074044 39.6728347242 50.4171735023
275 16 2 30.1213422688 40.6330902613 50.0523476767
276 16 2 30.4270007757 41.4426463995 49.4825742591
277 16 2 30.8610877889 42.029059439 48.7469532812
278 16 2 31.3698022573 42.3402245772 47.8997013366
279 16 2 31.8925410366 42.3491251219 47.0052098832
280 16 2 32.3674227039 42.0562949908 46.1321761339
281 16 2 32.7369278843 41.4897700461 45.3473414889
282 16 2 32.9531419881 40.7025327009 44.7094082363
283 16 2 32.9821224973 39.7676827136 44.2636889945
284 16 2 32.8069927359 38.7717743404 44.0379765887
285 16 2 32.4294801333 37.8069271463 44.040010809
286 16 2 31.8697587739 36.9624295527 44.2567729494
287 16 2 31.1646105837 36.3166004366 44.6556724276
288 16 2 30.3640727551 35.9296505743 45.18751733
289 17 1 21.9409695966 50.2070107796 57.7652947722
290 17 1 18.1109301757 47.2582768022 60.4399455952
291 17 2 21.8961967877 50.7564438067 57.824458379
292 17 2 21.5886013318 51.7445542424 57.8741857722
293 17 2 21.0110895806 52.6045668338 57.856620723
294 17 2 20.2109910259 53.2596135907 57.7917665779
295 17 2 19.2559233517 53.6515086109 57.7039369583
296 17 2 18.2276292631 53.7460515696 57.6195396387
297 17 2 17.2145258572 53.5361449874 57.5646695486
298 17 2 16.3036456407 53.0424411473 57.5627302895
299 17 2 15.5727037501 52.3114596936 57.632300959
300 17 2 15.0830144244 51.4113474907 57.7854427159
301 17 2 14.873902376 50.4256672191 58.0265994379
302 17 2 14.9591184483 49.4457808598 58.3521926735
303 17 2 15.3255862635 48.5625222944 58.7509478092
304 17 2 15.9345940988 47.8579180391 59.2049217193
305 17 2 16.7253233571 47.3977107474 59.6911382348
306 17 2 17.6203920191 47.2253669427 60.1836823591
307 18 1 27.9143957681 8.19982480055 3.80350016858
308 18 1 31.305678001 5.6654192418 7.35230057741
309 18 2 28.1376547223 8.62940733031 3.53332267597
310 18 2 28.6184612533 9.50048642978 3.24436542405
311 18 2 29.1581349971 10.3848363109 3.25565919142
312 18 2 29.7253540467 11.1955677523 3.56294910476
313 18 2 30.2862858142 11.8525016566 4.13500103317
314 18 2 30.8076707806 12.2894771607 4.91644849574
315 18 2 31.2598540121 12.4603820221 5.83283916827
316 18 2 31.6194881281 12.343355626 6.79742101365
317 18 2 31.8716613524 11.9427815222 7.71904949816
318 18 2 32.011256682 11.2888878762 8.51049517215
319 18 2 32.0434182882 10.4349922528 9.09639440115
320 18 2 31.9830826388 9.4526418623 9.42011855982
321 18 2 31.8536170793 8.42509222386 9.44893557973
322 18 2 31.6846899618 7.43971864721 9.17699338992
323 18 2 31.509566454 6.58005220678 8.62585331755
324 18 2 31.3620765078 5.91816610751 7.84252483054
325 19 1 45.8409877032 61.3085298124 57.4343373691
326 19 1 43.7814647676 56.2246851619 58.0907518027
327 19 2 45.549873104 61.6364882626 57.0951071625
328 19 2 45.0200688167 62.0656167909 56.3149750361
329 19 2 44.5359853928 62.2180817041 55.411721085
330 19 2 44.1236932954 62.075062591 54.472034557
331 19 2 43.8027194001 61.6446716198 53.5859254319
332 19 2 43.5842671727 60.9612141355 52.8385202522
333 19 2 43.4701955026 60.0820618191 52.3023030669
334 19 2 43.4528492706 59.0824234128 52.0305087034
335 19 2 43.5157570924 58.0484896436 52.0522705559
336 19 2 43.6351326411 57.0695771696 52.3699651539
337 19 2 43.7820427075 56.2299876043 52.9589955483
338 19 2 43.9250443844 55.6013236509 53.7700332572
339 19 2 44.0330510044 55.2359627068 54.7335144255
340 19 2 44.0781656055 55.1622828035 55.7659803842
341 19 2 44.0382236654 55.3820760257 56.7776846849
342 19 2 43.8988133381 55.8703851667 57.680773249
343 20 1 37.8367199078 22.131809906 46.2180122181
344 20 1 36.2144492062 22.6149219678 40.9594162489
345 20 2 37.5248572994 21.7947163772 46.5286426326
346 20 2 36.7647137535 21.292230206 47.0217343568
347 20 2 35.8323715937 20.9833352058 47.3515403409
348 20 2 34.8087438603 20.8820976493 47.4755856216
349 20 2 33.7830640293 20.9836563883 47.3701497736
350 20 2 32.8447526201 21.2646659342 47.0324289633
351 20 2 32.075266754 21.6854243371 46.4807915105
352 20 2 31.5406755551 22.1934919122 45.7531036651
353 20 2 31.2856381266 22.7284709771 44.9032781998
354 20 2 31.3293329925 23.2275109389 43.9963604051
355 20 2 31.6637100268 23.631036958 43.1025993845
356 20 2 32.2542242008 23.8881800353 42.2910450367
357 20 2 33.0429842698 23.9614135858 41.6232543421
358 20 2 33.9540294059 23.8299738861 41.1476806082
359 20 2 34.9002528243 23.4917526325 40.8952570803
360 20 2 35.7913413334 22.9634891075 40.8765774589
361 21 1 15.7153044131 46.1939018849 4.36108290976
362 21 1 13.9542983044 44.3627012885 9.26654444992
363 21 2 15.3137658939 46.3040981832 3.9950157281
364 21 2 14.4886052569 46.2945634713 3.36854224606
365 21 2 13.6213572999 46.0130931093 2.87650014673
366 21 2 12.7775216478 45.4930070204 2.57500078759
367 21 2 12.0204639566 44.7893743136 2.50278806462
368 21 2 11.4056403032 43.9739938816 2.67770700974
369 21 2 10.9755425119 43.1288501234 3.09507726387
370 21 2 10.7558251386 42.3386402857 3.7281196791
371 21 2 10.7529671263 41.6830545352 4.5303971665
372 21 2 10.9536812669 41.2295124131 5.44004731263
373 21 2 11.3261252946 41.0270177234 6.38542097318
374 21 2 11.8228042234 41.101691968 7.29161290099
375 21 2 12.3848993882 41.4543934411 8.08728915913
376 21 2 12.9476296087 42.0606389982 8.71118901854
377 21 2 13.4461558211 42.8728356291 9.11770870982
378 21 2 13.8214909853 43.8246184338 9.28105808488
379 22 1 20.4295376438 4.76294481262 24.0522804118
380 22 1 20.8531330845 4.94076713287 18.5471067373
381 22 2 19.9160135901 4.6809750905 24.2445188026
382 22 2 18.9025358825 4.70474227763 24.4584067832
383 22 2 17.8947732177 4.94528080299 24.4560318169
384 22 2 16.9775965386 5.36811732423 24.2248474171
385 22 2 16.2276201174 5.9221625239 23.7731624653
386 22 2 15.7062183701 6.54436776422 23.1293838792
387 22 2 15.4539317416 7.16547180186 22.3394273977
388 22 2 15.4867715533 7.71631376518 21.4625324842
389 22 2 15.7947606137 8.13413698281 20.5658628077
390 22 2 16.3428426125 8.36830908655 19.7183844542
391 22 2 17.0740774099 8.38493701634 18.984579852
392 22 2 17.914830978 8.16995628216 18.4185703708
393 22 2 18.7814869456 7.73041290465 18.0591833034
394 22 2 19.5880680072 7.09382118921 17.9264128619
395 22 2 20.2540725242 6.30565587055 18.0195977587
396 22 2 20.7118120344 5.42520721223 18.3174814809
397 23 1 54.4509296801 11.7134347421 10.3580463558
398 23 1 52.7441542641 11.2596262161 15.5924485721
399 23 2 55.0008589008 11.6974823407 10.2894536361
400 23 2 56.027386399 11.8319226074 10.3296670833
401 23 2 56.9743804312 12.157252767 10.5957734554
402 23 2 57.760690677 12.6306216799 11.0764896719
403 23 2 58.3198127137 13.1956848695 11.7409715386
404 23 2 58.6059497163 13.787740171 12.5416251134
405 23 2 58.5981867164 14.3396251609 13.4184447669
406 23 2 58.3023969452 14.7878388322 14.3044825355
407 23 2 57.7507065042 15.0783295413 15.1319502487
408 23 2 56.998566157 15.1714216713 15.8383982401
409 23 2 56.1196971404 15.0454319581 16.3724074677
410 23 2 55.1993716709 14.6986458619 16.6982762216
411 23 2 54.3266406096 14.1494738433 16.79927424
412 23 2 53.5862167145 13.4347732987 16.6791676275
413 23 2 53.0507532993 12.6064891071 16.361875585
414 23 2 52.7742220776 11.7269189937 15.8892902381
415 24 1 44.9405404465 9.54328621756 56.8183804574
416 24 1 45.9236888029 6.12703463985 61.0469305078
417 24 2 44.7739551543 10.0519557568 56.9629011423
418 24 2 44.3077114463 10.8850656332 57.365386856
419 24 2 43.6871933748 11.501920793 57.9202715701
420 24 2 42.9796855483 11.8496298093 58.5925669863
421 24 2 42.2604014593 11.899833207 59.3365831348
422 24 2 41.6056279747 11.6512883526 60.1000928927
423 24 2 41.0857719925 11.1299827177 60.8290923468
424 24 2 40.7589430411 10.3867651896 61.4727231056
425 24 2 40.6656567506 9.49271133202 61.9879079063
426 24 2 40.8251419619 8.53264503655 62.3432769916
427 24 2 41.2335880693 7.59740705226 62.5220273798
428 24 2 41.8644923466 6.77557509399 62.5234544112
429 24 2 42.6710756001 6.14539022039 62.3630159761
430 24 2 43.5905459669 5.7676253706 62.0709235696
431 24 2 44.5498222256 5.68004607322 61.6893885942
432 24 2 45.4721949539 5.89396821936 61.2687749037
433 25 1 15.1868926193 31.2329307957 18.8892368368
434 25 1 12.2822154476 26.653191557 19.941296766
435 25 2 14.8876670469 31.6626037663 18.706954684
436 25 2 14.2439266053 32.3075591138 18.2139223779
437 25 2 13.5288046739 32.6946494335 17.5718852149
438 25 2 12.7914869807 32.786944413 16.8498781046
439 25 2 12.083182338 32.5743835467 16.1242250039
440 25 2 11.4524550964 32.0746931251 15.4715821918
441 25 2 10.9407986332 31.3317705298 14.9619512545
442 25 2 10.578853343 30.411683105 14.6522986282
443 25 2 10.3836138469 29.3966462959 14.5813632606
444 25 2 10.3568799785 28.3775299298 14.7661256593
445 25 2 10.4850927336 27.4455756752 15.2002601637
446 25 2 10.7405701377 26.6840806068 15.8547115125
447 25 2 11.0840303836 26.1608049002 16.6803431529
448 25 2 11.4681722631 25.9217956728 17.6124159058
449 25 2 11.8419865459 25.9871899123 18.5764887696
450 25 2 12.1554053347 26.3493790438 19.4952040176
451 26 1 26.5279901073 5.94853803511 38.2320902965
452 26 1 22.6760838493 7.60828507999 34.6368088071
453 26 2 26.5452908084 5.40138634131 38.3198815134
454 26 2 26.346306224 4.40417826469 38.5184544176
455 26 2 25.8607025526 3.51396371112 38.7309564979
456 26 2 25.1293158436 2.80499942688 38.9204113387
457 26 2 24.2153846133 2.33502168066 39.0519432189
458 26 2 23.1987858233 2.13998375697 39.0959559403
459 26 2 22.1687543088 2.23077891034 39.0308304422
460 26 2 21.2157492621 2.59224747429 38.844895321
461 26 2 20.4232091185 3.1845586244 38.5374906472
462 26 2 19.8599463667 3.94684085154 38.1190281163
463 26 2 19.5738754735 4.80273023718 37.6100420508
464 26 2 19.5876456091 5.66733082048 37.0393177514
465 26 2 19.896576235 6.45495263822 36.4412677938
466 26 2 20.4690837229 7.08692213592 35.8527954144
467 26 2 21.2495601183 7.49875305206 35.3099308788
468 26 2 22.1634416563 7.64602416842 34.8445474198
469 27 1 55.548918686 49.5243617748 19.1871960444
470 27 1 52.0744709476 45.4840897515 20.6440439951
471 27 2 55.8165501113 49.7655491078 19.6086028297
472 27 2 56.1007369367 50.2347420041 20.4875487242
473 27 2 56.0852934025 50.6775595349 21.4240977848
474 27 2 55.7751536954 51.0386391778 22.3443612605
475 27 2 55.2021127704 51.2700686 23.1759347882
476 27 2 54.4219283259 51.3357527399 23.8544978564
477 27 2 53.5092386384 51.2147037757 24.3296764479
478 27 2 52.5507594833 50.9029541084 24.5696344971
479 27 2 51.6373802234 50.4139179989 24.5639756621
480 27 2 50.8558794868 49.7771688932 24.3246909235
481 27 2 50.2810155264 49.035743882 23.8850656386
482 27 2 49.9687122056 48.2422209853 23.2966456701
483 27 2 49.9509616869 47.453926806 22.6245391182
484 27 2 50.2329084324 46.7277113632 21.9414818918
485 27 2 50.7923802994 46.1147663653 21.3212080243
486 27 2 51.5819094725 45.6559592225 20.8317290138
487 28 1 12.7416389804 30.4365271887 52.3182823336
488 28 1 11.1316537749 28.3981952704 57.1938481152
489 28 2 13.2702141865 30.3346591222 52.1855693478
490 28 2 14.3003701025 30.229016516 52.1528823534
491 28 2 15.3046954933 30.2265430204 52.4073905114
492 28 2 16.1939566299 30.3095801937 52.9325280837
493 28 2 16.8894075829 30.4526755252 53.6870621845
494 28 2 17.3299677028 30.6249023639 54.6088510475
495 28 2 17.4777889584 30.7926787993 55.6205080819
496 28 2 17.3217056836 30.9228285637 56.6364554532
497 28 2 16.8782522979 30.9856049598 57.5707242743
498 28 2 16.1901562384 30.9574021925 58.3447904394
499 28 2 15.322443468 30.8229069745 58.8947318869
500 28 2 14.3565115327 30.5764942914 59.1770549239
501 28 2 13.382710393 30.2227401063 59.1726585605
502 28 2 12.4921072662 29.7760042735 58.8885755138
503 28 2 11.7681860932 29.2591216759 58.3573311945
504 28 2 11.2792382002 28.7013208867 57.6339791028
505 29 1 13.5277985437 61.8442207806 18.7384846198
506 29 1 9.37895998786 58.2308275491 18.2399677666
507 29 2 13.9222455329 61.6985863192 19.0998483762
508 29 2 14.4768742619 61.3921859167 19.919577464
509 29 2 14.7515269839 61.0500270149 20.8581631977
510 29 2 14.7223434311 60.6843454936 21.8271190049
511 29 2 14.3931571996 60.3095212561 22.7351901625
512 29 2 13.7951463283 59.9407675401 23.4966714202
513 29 2 12.9839915031 59.5927442714 24.0392188055
514 29 2 12.034800912 59.2782218509 24.3104435831
515 29 2 11.0352643339 59.0069171669 24.2826873482
516 29 2 10.0776604499 58.7846079262 23.9555430162
517 29 2 9.25044588798 58.6126060323 23.3558919275
518 29 2 8.63019263817 58.4876380081 22.5354536847
519 29 2 8.27460871987 58.4021433653 21.5660720497
520 29 2 8.21727825038 58.3449637223 20.5331665763
521 29 2 8.46460034229 58.3023598608 19.5279468466
522 29 2 8.99520584148 58.2592640192 18.639098961
523 30 1 42.5714784732 5.33268545246 11.2040071375
524 30 1 40.7666073161 1.54647737269 7.60886325384
525 30 2 42.175898414 5.57021043193 11.5113829481
526 30 2 41.3325316817 6.04780101744 11.8775656875
527 30 2 40.4120622546 6.51822954163 11.9474445014
528 30 2 39.4866653657 6.92378226385 11.7180592388
529 30 2 38.6289653729 7.21265869943 11.2137268698
530 30 2 37.9054162429 7.34369309537 10.4838250581
531 30 2 37.37024445 7.29010657871 9.59829151919
532 30 2 37.0605063775 7.04194797921 8.64124938473
533 30 2 36.9927107278 6.60700085197 7.70333960359
534 30 2 37.161313798 6.01007402711 6.87345926181
535 30 2 37.5392247737 5.29074035129 6.23065885078
536 30 2 38.0802749845 4.49972972844 5.8369370262
537 30 2 38.7234260546 3.69430522467 5.73158959636
538 30 2 39.3983333877 2.93304369277 5.92762781423
539 30 2 40.0317578893 2.27049664872 6.4105924365
540 30 2 40.5542415139 1.75221804675 7.13987164503
541 31 1 59.4877334863 9.63812088827 32.5144484566
542 31 1 58.8396611233 6.06177901102 28.354187401
543 31 2 59.29938747 9.46209170381 33.0052855909
544 31 2 58.7524517245 9.08463847774 33.8001694589
545 31 2 58.0008845998 8.65896631971 34.3723583107
546 31 2 57.1180178311 8.20528215479 34.6692875253
547 31 2 56.1891507653 7.74634612759 34.6634816616
548 31 2 55.3037755531 7.30539707596 34.3550587721
549 31 2 54.5474201795 6.90403437298 33.7717196421
550 31 2 53.9938528155 6.56024920187 32.9662229376
551 31 2 53.6983580476 6.28678470768 32.0115763938
552 31 2 53.6926978344 6.08997449376 30.9943823548
553 31 2 53.9822164898 5.96916533065 30.0069442021
554 31 2 54.5453535628 5.91677669625 29.1388531474
555 31 2 55.3356090148 5.91899172016 28.4688222336
556 31 2 56.285781574 5.95701655445 28.057511851
557 31 2 57.3140939518 6.00879338269 27.942000705
558 31 2 58.331646624 6.05101093095 28.1324061912
559 32 1 38.56981077 9.85630403649 42.3392388952
560 32 1 41.6640527851 8.85291324427 46.8043104883
561 32 2 38.1581479639 10.2194165819 42.4171144467
562 32 2 37.3391748778 10.7612450325 42.7475006231
563 32 2 36.5285278563 11.0932016193 43.300769312
564 32 2 35.8083422723 11.1978157699 44.0382234565
565 32 2 35.2525081804 11.0783385675 44.9043779875
566 32 2 34.919935436 10.758446423 45.8320171398
567 32 2 34.8491842195 10.2800830336 46.7483209891
568 32 2 35.0549503786 9.69963632701 47.5815027938
569 32 2 35.5267259415 9.08279885244 48.2673521646
570 32 2 36.22975689 8.4985800803 48.7550876696
571 32 2 37.1082108959 8.0130163735 49.0119854263
572 32 2 38.0902662878 7.68315194938 49.0263617961
573 32 2 39.0946584053 7.55183945184 48.8086383164
574 32 2 40.0380866547 7.64383404736 48.3903918056
575 32 2 40.8428071363 7.96353705771 47.8214762207
576 32 2 41.4437187926 8.49459479128 47.1654786016
577 33 1 23.4110515536 46.984218062 32.0128704289
578 33 1 28.9100445231 47.0908648781 32.5302618086
579 33 2 23.2187469052 47.1651846793 31.5253752046
580 33 2 22.9987762139 47.6877173229 30.6581828716
581 33 2 22.9881335747 48.4012901874 29.907083336
582 33 2 23.200904729 49.2339008426 29.3283451016
583 33 2 23.6308118483 50.1026968819 28.9625264006
584 33 2 24.2517857413 50.9215276975 28.8307784183
585 33 2 25.0203419908 51.6087968783 28.93291742
586 33 2 25.8795444423 52.0948995046 29.2474414975
587 33 2 26.7641947823 52.3285664503 29.7334904103
588 33 2 27.6067751902 52.2815374272 30.3345698879
589 33 2 28.3436024073 51.9511368341 30.9837009311
590 33 2 28.9206322957 51.3605176312 31.6095247692
591 33 2 29.2983858168 50.5565510094 32.1428070205
592 33 2 29.4555474402 49.6055542068 32.522748222
593 33 2 29.3909079976 48.5872458691 32.7025255374
594 33 2 29.1234748948 47.587479909 32.6535605335