LAMMPS input file for bananas

648 atoms

2 atom types

0 85.0126855346 xlo xhi
0 85.0126855346 ylo yhi
0 85.0126855346 zlo zhi

Masses

 1 1
 2 1

Atoms

1 1 1 35.9928671919 12.4741439296 -0.0471938887663
2 1 1 40.672238107 11.3444233377 2.66301095299
3 1 2 35.9293287181 13.0054988825 -0.192129614092
4 1 2 35.8622022689 14.0384232961 -0.236976093593
5 1 2 35.8824500583 15.0443145057 0.0104565491308
6 1 2 36.0061517525 15.9363609011 0.522707591595
7 1 2 36.2399574708 16.6381275226 1.24817882198
8 1 2 36.5804816449 17.0905229036 2.11583757821
9 1 2 37.0146116047 17.2571850993 3.04169118529
10 1 2 37.5207027627 17.127795981 3.93644266308
11 1 2 38.0705514607 16.7190217062 4.71362990742
12 1 2 38.6319656575 16.0729936426 5.2975064798
13 1 2 39.1716991478 15.2534682065 5.62994569278
14 1 2 39.6584818646 14.3400156362 5.6757387022
15 1 2 40.0658700623 13.4207673772 5.42580369921
16 1 2 40.3746565938 12.5843831363 4.8980136929
17 1 2 40.5746215901 11.9119697868 4.13556743324
18 1 2 40.6654639744 11.4696886934 3.20305196055
19 2 1 54.0203399454 22.6322541393 19.2145327664
20 2 1 53.2107053728 25.2257179889 14.4044986521
21 2 2 54.106482979 22.9664042912 19.6484735939
22 2 2 54.4270955492 23.6895544683 20.3175860002
23 2 2 54.9185588385 24.4947078016 20.7461206621
24 2 2 55.5239324465 25.3228947421 20.8913074296
25 2 2 56.1758933519 26.1130462892 20.7362025564
26 2 2 56.8028722254 26.8075602667 20.2912330762
27 2 2 57.3355767836 27.3575516073 19.5932464071
28 2 2 57.7133075946 27.7273080957 18.7021518079
29 2 2 57.8894906695 27.8975454418 17.6954598086
30 2 2 57.8359225567 27.8671649919 16.6612173338
31 2 2 57.5453410116 27.6533538682 15.6899824599
32 2 2 57.0320869302 27.2900184088 14.8665702891
33 2 2 56.3307972152 26.8246936949 14.2623222793
34 2 2 55.4932477145 26.3142108561 13.9286036607
35 2 2 54.5836339915 25.8195170642 13.8921216329
36 2 2 53.6727200708 25.4001203615 14.1524910742
37 3 1 41.4602356853 71.7906841151 12.9735634191
38 3 1 39.0197534911 68.3210918852 16.5124852152
39 3 2 41.6876165318 72.2397434414 13.2059967648
40 3 2 41.9021128488 73.0990763488 13.7435730807
41 3 2 41.8328556363 73.9094226857 14.385439316
42 3 2 41.4933848871 74.5896620708 15.0893455601
43 3 2 40.9218698358 75.0705330239 15.8073871215
44 3 2 40.1776299352 75.3009459644 16.4903709122
45 3 2 39.3357280461 75.2526398902 17.0922992663
46 3 2 38.4801286586 74.9227582923 17.5745625043
47 3 2 37.6960447534 74.3341095182 17.9094581023
48 3 2 37.0621708659 73.533087852 18.0827157029
49 3 2 36.6435102899 72.5854447991 18.0947978199
50 3 2 36.4854502011 71.5702960125 17.960857682
51 3 2 36.6096247373 70.5729101124 17.7093580558
52 3 2 37.0119431047 69.6769366793 17.3794769414
53 3 2 37.6629624426 68.9567818185 17.0175366018
54 3 2 38.5105714614 68.4708262423 16.6727814127
55 4 1 12.6514477047 61.4774152523 24.2891840086
56 4 1 15.9950447308 58.7645527523 27.7502137751
57 4 2 12.8553998622 61.9541775543 24.0930136417
58 4 2 13.2792000858 62.8892613142 23.9535082884
59 4 2 13.7398753217 63.8027237885 24.1172600709
60 4 2 14.2139512196 64.6068619091 24.5667752957
61 4 2 14.6767319949 65.2239372303 25.258513695
62 4 2 15.1045513831 65.593261581 26.1268570063
63 4 2 15.4769297568 65.6767286284 27.0900899013
64 4 2 15.7784407888 65.4622871692 28.0578481197
65 4 2 16.0001175208 64.9650395641 28.9393549302
66 4 2 16.1402696774 64.2258651983 29.6516951867
67 4 2 16.2046377306 63.3076944343 30.1273728223
68 4 2 16.2058696705 62.2897726782 30.3204629357
69 4 2 16.1623681755 61.2604373722 30.2107977227
70 4 2 16.096613257 60.3090662732 29.8058047181
71 4 2 16.0331132663 59.5179309089 29.1398297953
72 4 2 15.9961710241 58.9546977482 28.2710066322
73 5 1 13.4293332831 57.3597006493 73.6295242664
74 5 1 11.289654087 54.5377518647 77.8693791054
75 5 2 13.2919337971 57.8965761667 73.6131643123
76 5 2 12.8164358739 58.8170781456 73.6078876568
77 5 2 12.0959875955 59.5603818413 73.651521419
78 5 2 11.1965909013 60.063416695 73.7587199905
79 5 2 10.2005584005 60.2850120102 73.9383439999
80 5 2 9.19901079769 60.2096495525 74.1926526912
81 5 2 8.28357148433 59.8488779945 74.5170979989
82 5 2 7.53801531143 59.2402602857 74.9007390926
83 5 2 7.03063273581 58.4439498897 75.3272396041
84 5 2 6.80800532746 57.5372079568 75.7763566438
85 5 2 6.89075998399 56.6073611769 76.2257858862
86 5 2 7.271688844 55.7438421849 76.6531945492
87 5 2 7.91640626437 55.030038015 77.0382569676
88 5 2 8.76648297977 54.5356895956 77.3645072233
89 5 2 9.744771774 54.31053505 77.6208399697
90 5 2 10.7624392426 54.3797761995 77.8025226542
91 6 1 45.3635642564 24.5298245462 10.5691729736
92 6 1 40.3105608548 22.301373064 10.7075625534
93 6 2 45.7738486702 24.1720419937 10.4641018888
94 6 2 46.440107919 23.3789600582 10.4402341648
95 6 2 46.9158643196 22.478517397 10.6307830363
96 6 2 47.1496144425 21.541234157 11.0053641613
97 6 2 47.1119130836 20.6409884051 11.5168191494
98 6 2 46.7980571157 19.8482823404 12.1055139239
99 6 2 46.2285141662 19.2238162067 12.7047742077
100 6 2 45.4470570473 18.812955628 13.2469627057
101 6 2 44.5167739817 18.6415966527 13.6696440639
102 6 2 43.514318279 18.7138053982 13.9212756842
103 6 2 42.522921592 19.0114474353 13.9659056954
104 6 2 41.6248075736 19.4958406927 13.7864498694
105 6 2 40.8936974111 20.1112812244 13.3862488033
106 6 2 40.3880903362 20.7901204758 12.7887634329
107 6 2 40.1459315774 21.4589312683 12.0354366309
108 6 2 40.181153753 22.0452004906 11.1819158002
109 7 1 25.2566898137 8.20892707322 79.978224309
110 7 1 20.7136623284 5.16587659498 80.7648221198
111 7 2 25.1836312947 8.755895445 80.0317933404
112 7 2 24.8678960428 9.74152850048 79.9839525434
113 7 2 24.3348928019 10.6014661539 79.7606482921
114 7 2 23.620844549 11.2581901781 79.3969194649
115 7 2 22.7784760301 11.6527047252 78.940604265
116 7 2 21.8722080403 11.7499136402 78.4479798962
117 7 2 20.972285641 11.541819382 77.9786330457
118 7 2 20.1483755098 11.0482519775 77.5900287172
119 7 2 19.4632160091 10.3150615682 77.3322724496
120 7 2 18.9668987524 9.40993929177 77.2435433305
121 7 2 18.6923028873 8.41624741611 77.3466140747
122 7 2 18.6520982493 7.42542109139 77.6467753522
123 7 2 18.8375905396 6.52863428045 78.1313535575
124 7 2 19.2195137882 5.80848949581 78.7708659753
125 7 2 19.7506978679 5.33148880141 79.5217080508
126 7 2 20.3703679256 5.14197232721 80.3301278283
127 8 1 40.8339190895 35.6308176104 13.7828932299
128 8 1 35.8028567006 34.2393143261 15.5912407931
129 8 2 40.9220622793 36.1760025202 13.7340487794
130 8 2 40.8843805594 37.1896536809 13.5230003881
131 8 2 40.5796345045 38.1210252285 13.186656972
132 8 2 40.02629067 38.8920703101 12.7710248101
133 8 2 39.2654746341 39.4393554019 12.3293371386
134 8 2 38.357222512 39.7198421047 11.9172020838
135 8 2 37.3750088239 39.7148099799 11.58753413
136 8 2 36.399049489 39.4315628665 11.3857311056
137 8 2 35.5089903592 38.9027631562 11.3455362925
138 8 2 34.776647712 38.1834547038 11.485962816
139 8 2 34.2594623891 37.3460457265 11.8095606494
140 8 2 33.9952642174 36.4737089888 12.3021841906
141 8 2 33.9988239208 35.6528008273 12.9342815961
142 8 2 34.2605068088 34.9649900011 13.6635883524
143 8 2 34.7471509524 34.4798138032 14.4389795734
144 8 2 35.4050898054 34.2483399217 15.2051298974
145 9 1 29.8378361283 65.6267411522 30.7085701597
146 9 1 30.1894827346 60.7133453823 28.2079946792
147 9 2 29.7192557665 65.6054660894 31.2497426438
148 9 2 29.3232402977 65.4247901415 32.1899436657
149 9 2 28.7415247955 65.0630735957 32.9672584192
150 9 2 28.0372069991 64.5379143726 33.5164343867
151 9 2 27.2845595195 63.8818077561 33.7930132911
152 9 2 26.5622600891 63.1391845347 33.7773833489
153 9 2 25.9462202965 62.3623612547 33.4765668322
154 9 2 25.5026664486 61.6067717059 32.9235800069
155 9 2 25.2821032193 60.9259142805 32.1744237887
156 9 2 25.3147102837 60.3664757373 31.302979409
157 9 2 25.6075915212 59.9640758284 30.3942743384
158 9 2 26.144127516 59.7400206544 29.5367322599
159 9 2 26.8854903725 59.6993606698 28.8141134864
160 9 2 27.774182774 59.8304303477 28.2978804322
161 9 2 28.7392787096 60.1059114616 28.040684005
162 9 2 29.7028881905 60.4853230684 28.0715646162
163 10 1 39.4591873584 46.7431247372 75.160778629
164 10 1 35.5238717313 49.1470188509 78.2025832031
165 10 2 39.6377497197 47.04339195 74.7302711702
166 10 2 39.741796483 47.6244682951 73.8788167889
167 10 2 39.5399513129 48.1997224097 73.0410869744
168 10 2 39.0506040488 48.7344707472 72.3007941392
169 10 2 38.3183495775 49.1977217539 71.7327695753
170 10 2 37.4099231283 49.5650006671 71.3961427826
171 10 2 36.4081175358 49.8205803237 71.3289519723
172 10 2 35.4042368935 49.9589146493 71.544676986
173 10 2 34.4897744304 49.9851441681 72.0310106442
174 10 2 33.7480731474 49.9146274577 72.7509805128
175 10 2 33.2467293257 49.7715412562 73.6463188413
176 10 2 33.0314313061 49.5866768165 74.6427735131
177 10 2 33.1217951193 49.3946333665 75.6568759269
178 10 2 33.5095765366 49.2306644815 76.6035489371
179 10 2 34.15942251 49.1274648154 77.403861408
180 10 2 35.0120935074 49.1121900702 77.9922225756
181 11 1 65.1824616382 57.7087211903 79.9162438525
182 11 1 63.2402534213 61.0828158468 75.9968939635
183 11 2 65.6982375215 57.8205064977 80.0861287291
184 11 2 66.7094334014 58.0287266092 80.1731763539
185 11 2 67.7008469501 58.2355566822 79.9546117012
186 11 2 68.5821702347 58.4413575097 79.4502652938
187 11 2 69.2731297551 58.6465836979 78.7060158975
188 11 2 69.7108031599 58.8517422298 77.7896087943
189 11 2 69.85535445 59.0573462548 76.7844809812
190 11 2 69.6936649235 59.2638683172 75.7821561107
191 11 2 69.2405289107 59.4716972844 74.8739023546
192 11 2 68.5373053099 59.6811029029 74.142413554
193 11 2 67.6481478348 59.8922112119 73.6542718968
194 11 2 66.6541575747 60.1049930546 73.4538791291
195 11 2 65.645990847 60.3192667362 73.559409455
196 11 2 64.7155961163 60.5347145849 73.9611530061
197 11 2 63.9478331376 60.7509119066 74.6224008702
198 11 2 63.4127382163 60.9673656946 75.4827910108
199 12 1 63.9717836422 76.4280327182 -0.618997537586
200 12 1 69.4062409513 77.407818277 -0.461882687972
201 12 2 63.689075574 76.6082565837 -0.177435430334
202 12 2 63.3269499224 76.8296216356 0.767716693583
203 12 2 63.2166866773 76.8976776791 1.79565657651
204 12 2 63.3772046137 76.8228384356 2.81648128766
205 12 2 63.8027415255 76.6285421499 3.74093642515
206 12 2 64.4633794354 76.3491152572 4.48855141615
207 12 2 65.3077715385 76.0266436198 4.99497419455
208 12 2 66.2678223262 75.7071365134 5.21783671974
209 12 2 67.2648943101 75.4363330047 5.14061671032
210 12 2 68.2169756186 75.2555329578 4.77414360587
211 12 2 69.0461551598 75.1978326614 4.15561149247
212 12 2 69.6857240098 75.2851081914 3.34518896117
213 12 2 70.0862557519 75.5260214644 2.42053490173
214 12 2 70.2201115633 75.9152307273 1.4697201024
215 12 2 70.0839594194 76.4338774439 0.583199832943
216 12 2 69.6990777989 77.0513052003 -0.15443091144
217 13 1 64.7433830805 66.9221345819 12.9335290331
218 13 1 60.6448715987 69.2180677828 15.840225686
219 13 2 65.0675714445 66.5756946739 13.2203441004
220 13 2 65.6842879539 66.1072668765 13.908592716
221 13 2 66.2548410045 65.9009084678 14.748435222
222 13 2 66.7144546969 65.9666221055 15.6746571083
223 13 2 67.008464958 66.2896118076 16.6141706153
224 13 2 67.0973020247 66.8316315664 17.4926764877
225 13 2 66.9600971221 67.5344713701 18.2414361529
226 13 2 66.5965845967 68.3252628895 18.8035370584
227 13 2 66.0271261301 69.1231212316 19.1390800987
228 13 2 65.2908548258 69.8465173815 19.2288163123
229 13 2 64.4421083317 70.4207093539 19.0759013728
230 13 2 63.5454761086 70.7845547257 18.7056079579
231 13 2 62.6699122735 70.8960836041 18.1630222125
232 13 2 61.8824506162 70.7363240704 17.5089342667
233 13 2 61.2420946484 70.3110314195 16.8142973783
234 13 2 60.7944395914 69.6501635802 16.1537607327
235 14 1 23.4747605997 56.9120408303 33.2407218888
236 14 1 23.7692966979 54.1354255504 38.0074447815
237 14 2 23.5233876488 57.4623352573 33.2875518127
238 14 2 23.4483179401 58.4644458186 33.5397203535
239 14 2 23.1755122285 59.3534392288 33.9965767548
240 14 2 22.7431637596 60.0498663452 34.6302281449
241 14 2 22.2040076751 60.491829928 35.3966672614
242 14 2 21.6205143453 60.6406264083 36.2397835954
243 14 2 21.0591953617 60.4842736151 37.0964777146
244 14 2 20.5845411838 60.0386029182 37.9024126081
245 14 2 20.2531430053 59.3458162409 38.5978778324
246 14 2 20.1085346188 58.4706394676 39.1332319593
247 14 2 20.1772244263 57.4944228525 39.4734272591
248 14 2 20.4662792698 56.5077261615 39.6012042078
249 14 2 20.9626803069 55.6020643912 39.518664646
250 14 2 21.6345096442 54.8615664218 39.2470802024
251 14 2 22.4338595674 54.3553068945 38.8249534413
252 14 2 23.3011992017 54.1310102426 38.3045084567
253 15 1 42.7322265818 27.8684719594 9.20408229194
254 15 1 40.0262826842 32.6817239084 9.37279613104
255 15 2 42.4463665099 27.4330158222 9.39393370729
256 15 2 41.8737195428 26.7592072819 9.9338480647
257 15 2 41.2823177708 26.3240213432 10.6648112334
258 15 2 40.7083890829 26.1709334277 11.5137046086
259 15 2 40.1865687428 26.3177064763 12.3966605622
260 15 2 39.746742478 26.7547719045 13.2267067534
261 15 2 39.4113224749 27.4461017532 13.9216934245
262 15 2 39.1932045683 28.332492541 14.4117811323
263 15 2 39.0945928204 29.3369615032 14.6458064264
264 15 2 39.1067986266 30.3717633652 14.595945261
265 15 2 39.2110326582 31.3463880897 14.2602490823
266 15 2 39.3801174599 32.1758106243 13.6628224341
267 15 2 39.5809646019 32.7882407086 12.8516258928
268 15 2 39.777590602 33.1316663638 11.8941045893
269 15 2 39.9343967239 33.1785946457 10.8710407654
270 15 2 40.0194137067 32.9285575536 9.86919068866
271 16 1 13.9662968028 54.4728409121 63.3219510022
272 16 1 10.3762995324 52.7700728456 59.4839187497
273 16 2 13.7729414458 54.8618379794 63.6664456691
274 16 2 13.3487180858 55.6962175735 64.110624963
275 16 2 12.8617538599 56.5979845648 64.2627175242
276 16 2 12.3382818553 57.479199872 64.1114341679
277 16 2 11.807862746 58.2537976449 63.6731376131
278 16 2 11.300690416 58.8454299364 62.9903510649
279 16 2 10.8448398672 59.1944256143 62.1278823378
280 16 2 10.4637082587 59.2632292249 61.1669167966
281 16 2 10.1738823177 59.0398240727 60.1976175275
282 16 2 9.98362650388 58.5388275099 59.3109072137
283 16 2 9.89212972591 57.800158604 58.5901807759
284 16 2 9.88957927036 56.885399621 58.103704148
285 16 2 9.95805520424 55.8721829671 57.8983920201
286 16 2 10.073163729 54.8471152018 57.9955316893
287 16 2 10.20626061 53.897883082 58.3888427801
288 16 2 10.3270620221 53.1052611479 59.0450496831
289 17 1 30.4032994797 60.115810389 53.2945359871
290 17 1 27.5866179371 59.9713231973 48.5444391881
291 17 2 30.9024010362 59.8749966523 53.27756635
292 17 2 31.7156180792 59.2454492849 53.151875601
293 17 2 32.3139463376 58.4380537237 52.8997531821
294 17 2 32.6490015674 57.531409121 52.5266800411
295 17 2 32.6963961575 56.6131609139 52.049161461
296 17 2 32.4579619955 55.7720121773 51.4932226475
297 17 2 31.9615834953 55.0896385752 50.8920366006
298 17 2 31.2586560084 54.6332438425 50.2829004852
299 17 2 30.4194012738 54.4494343441 49.7038360932
300 17 2 29.5264668953 54.5599710295 49.1901242597
301 17 2 28.6673932323 54.9597859802 48.7710891084
302 17 2 27.9266343308 55.6174443368 48.4674252368
303 17 2 27.3778601623 56.478009503 48.2893114584
304 17 2 27.0772418033 57.4680504687 48.2354830314
305 17 2 27.0583315912 58.502334851 48.2933469362
306 17 2 27.3290049189 59.4915975979 48.4401296959
307 18 1 74.8193628201 26.4258889605 28.1665147052
308 18 1 70.9398029938 28.7072311283 31.3700259865
309 18 2 75.2095273828 26.77632045 27.9866509424
310 18 2 75.7538162935 27.5617271738 27.5862313236
311 18 2 76.0170769687 28.4627013626 27.147609232
312 18 2 75.977846166 29.4083618068 26.726138854
313 18 2 75.6422319324 30.3237542644 26.3756110435
314 18 2 75.0433568726 31.1366833393 26.1433504286
315 18 2 74.238339112 31.7842928988 26.0659018991
316 18 2 73.3030861323 32.2187952424 26.1656996365
317 18 2 72.325376007 32.4118268226 26.4490222991
318 18 2 71.3968566652 32.3570335065 26.9054207388
319 18 2 70.6046924277 32.0706497384 27.5086704128
320 18 2 70.0236192116 31.5900188129 28.219161681
321 18 2 69.7091325518 30.9701891343 28.9875101186
322 18 2 69.6924293313 30.2788967007 29.7590577742
323 18 2 69.9775642681 29.5903911498 30.4788550966
324 18 2 70.5410803393 28.9786681021 31.0966694389
325 19 1 60.6558239167 76.6341621966 42.2166784096
326 19 1 64.758391419 77.4604457824 38.6105466335
327 19 2 60.638799222 76.9944766803 42.6377071743
328 19 2 60.8344861293 77.6120708755 43.4462453957
329 19 2 61.3133592708 78.1217069955 44.2107070042
330 19 2 62.0366704168 78.4933421402 44.8527025778
331 19 2 62.9433914671 78.7095118295 45.3050051463
332 19 2 63.9557769989 78.7669218441 45.5176777501
333 19 2 64.9864505543 78.6767484847 45.4626250601
334 19 2 65.9463687708 78.4636198821 45.1361541925
335 19 2 66.7529374463 78.1633712089 44.5593113047
336 19 2 67.337539779 77.8197783991 43.7759632947
337 19 2 67.6517906064 77.4805680892 42.8487994503
338 19 2 67.6719465828 77.1930674624 41.8536174884
339 19 2 67.4010703224 76.9998905024 40.8724147953
340 19 2 66.8687512497 76.9350538429 39.9859145846
341 19 2 66.128408603 77.0208762422 39.2662081915
342 19 2 65.2524224131 77.2659442882 38.7701841405
343 20 1 17.248833105 38.8161089192 64.4661750804
344 20 1 17.1106990238 35.3276105054 60.184903207
345 20 2 17.0099733646 38.6269946943 64.9293849922
346 20 2 16.3839642139 38.2257221957 65.6508716076
347 20 2 15.5797485083 37.7790208135 66.1274689065
348 20 2 14.6757214823 37.3090824033 66.3154663478
349 20 2 13.7593759049 36.8402168138 66.1974584961
350 20 2 12.9193273486 36.3966361089 65.7839314806
351 20 2 12.2372371161 36.000247703 65.1123072124
352 20 2 11.7803690312 35.6686575584 64.2435324775
353 20 2 11.5954585207 35.4135654491 63.2565237997
354 20 2 11.7044528057 35.2396985576 62.2409744109
355 20 2 12.1025104704 35.1443806052 61.2891789524
356 20 2 12.7584427448 35.1177757869 60.4876210654
357 20 2 13.6175562773 35.1437852794 59.9090906378
358 20 2 14.6066382878 35.2015146058 59.6060492005
359 20 2 15.6406297166 35.2671781107 59.6058481997
360 20 2 16.6303781308 35.3162669598 59.9082359849
361 21 1 62.2940220091 3.87892725953 61.1591982503
362 21 1 58.2891828148 1.00044388344 63.6478901844
363 21 2 62.7164109843 4.02369694194 61.4878483389
364 21 2 63.3343536742 4.37314397966 62.242489718
365 21 2 63.6821791415 4.7836328423 63.1279084602
366 21 2 63.7300246926 5.20215928119 64.0744793421
367 21 2 63.4753700012 5.57498644411 65.007003286
368 21 2 62.9432668298 5.85254284566 65.8515615552
369 21 2 62.1840556282 5.99394067574 66.5422532492
370 21 2 61.268777136 5.97070261409 67.0272019943
371 21 2 60.2826972095 5.76935746195 67.2732843371
372 21 2 59.3175350663 5.39266800585 67.2691488581
373 21 2 58.463103324 4.85937919694 67.0262508234
374 21 2 57.7991218202 4.20250959884 66.577808068
375 21 2 57.3879513622 3.46634183379 65.9757732788
376 21 2 57.2689097061 2.70238634001 65.2860986463
377 21 2 57.4546878487 1.96468633294 64.582724498
378 21 2 57.9301932768 1.30489191055 63.940839836
379 22 1 16.2679876767 4.2640070434 73.3200152348
380 22 1 12.7789187177 0.89001121714 75.958298962
381 22 2 16.2969362888 4.77781523008 73.526278933
382 22 2 16.1164965739 5.72863504424 73.8961886537
383 22 2 15.6456804878 6.58821730702 74.2321954361
384 22 2 14.9262363935 7.27490275133 74.5225629737
385 22 2 14.0225744323 7.72279119295 74.7597148555
386 22 2 13.015895712 7.88774815624 74.940925135
387 22 2 11.9967910423 7.75142761357 75.0685667935
388 22 2 11.0569838251 7.32294417675 75.1498954488
389 22 2 10.2809697116 6.6380423245 75.196388025
390 22 2 9.73831504928 5.75583838878 75.222696662
391 22 2 9.47731609524 4.75343225908 75.2453132117
392 22 2 9.52059694171 3.71887993364 75.2810660497
393 22 2 9.86304739033 2.74316745049 75.3455862143
394 22 2 10.4722887331 1.91191775332 75.4518826788
395 22 2 11.2916249852 1.29758638898 75.6091566183
396 22 2 12.2452105721 0.952857378071 75.8219627474
397 23 1 41.1545797918 27.3739077722 48.623654561
398 23 1 38.5045410669 23.9358745327 52.0405556807
399 23 2 41.0895651303 27.9125859766 48.737586444
400 23 2 40.7395643697 28.8634622895 48.9538818812
401 23 2 40.1218016326 29.6657275221 49.1734034257
402 23 2 39.2928276332 30.2462360406 49.3953538243
403 23 2 38.3284444273 30.5520547429 49.6187144402
404 23 2 37.3167962583 30.5552877697 49.8423380991
405 23 2 36.3503354445 30.2556191371 50.0650536512
406 23 2 35.5173955975 29.680341538 50.2857727178
407 23 2 34.8941402497 28.8818686858 50.503588895
408 23 2 34.5376207519 27.9329579449 50.7178603692
409 23 2 34.4805761951 26.9200786909 50.928268417
410 23 2 34.7284493297 25.9355308587 51.1348464561
411 23 2 35.2588904737 25.0690320494 51.3379769993
412 23 2 36.0237946261 24.3995400117 51.5383567894
413 23 2 36.9536861094 23.9880558532 51.7369332928
414 23 2 37.964051092 23.8720639531 51.9348183409
415 24 1 34.4910102924 5.8761015694 16.8570954754
416 24 1 33.3142949438 10.2368653696 13.6763611061
417 24 2 34.6450045603 5.42051630168 16.5812161226
418 24 2 34.7377007448 4.61113060064 15.9410972152
419 24 2 34.5791465395 3.92738410122 15.1789940072
420 24 2 34.1944007438 3.43903238268 14.3501796234
421 24 2 33.6291389158 3.19802131226 13.5160077341
422 24 2 32.9454901676 3.23375231819 12.7383203319
423 24 2 32.2163742627 3.55040252811 12.0738109995
424 24 2 31.5188551743 4.12654403507 11.5688574407
425 24 2 30.9271169103 4.91709699391 11.2552942774
426 24 2 30.5057018392 5.85743852875 11.1475114081
427 24 2 30.3036278257 6.86929293532 11.2411424079
428 24 2 30.3499203832 7.86786630225 11.5134625158
429 24 2 30.6509670761 8.76957524944 11.9254599362
430 24 2 31.1899353103 9.49966532973 12.4253916599
431 24 2 31.9283065791 9.999024697 12.9534997009
432 24 2 32.809387322 10.2295719929 13.4474578772
433 25 1 70.0689401959 17.6187830358 67.9185323462
434 25 1 72.6898923733 13.7032260356 65.0346089555
435 25 2 69.5155084099 17.5903206571 67.9016581269
436 25 2 68.5157544379 17.5247720233 67.6377540092
437 25 2 67.638426548 17.4324661712 67.0944075134
438 25 2 66.9605451647 17.3028378904 66.3216699447
439 25 2 66.5409516963 17.1287238102 65.3905009914
440 25 2 66.4149452981 16.9070153215 64.3863009392
441 25 2 66.5910654488 16.6389419183 63.4011266632
442 25 2 67.0503135996 16.3299591327 62.5253008897
443 25 2 67.747884841 15.9892512777 61.8391795216
444 25 2 68.6172517511 15.6288943215 61.4058274119
445 25 2 69.5762281917 15.2627551954 61.2652701715
446 25 2 70.5344603556 14.90522786 61.4308459416
447 25 2 71.4016622744 14.5699213343 61.8879896576
448 25 2 72.0958451431 14.2684192697 62.5955606159
449 25 2 72.5507903808 14.0092241315 63.4895923392
450 25 2 72.7220852772 13.7969822216 64.4891229497
451 26 1 20.1012411149 55.7414993364 73.1474565896
452 26 1 17.5540336407 52.6789863875 76.9750850436
453 26 2 20.073122864 56.289060586 73.229722196
454 26 2 19.7904772957 57.2698254234 73.407659903
455 26 2 19.2338649342 58.1178000165 73.6187801997
456 26 2 18.4557665028 58.7568617327 73.8629378643
457 26 2 17.5288505881 59.1299297897 74.1369764075
458 26 2 16.5393500925 59.2041680163 74.4350157776
459 26 2 15.5792023357 58.9739777817 74.7489883115
460 26 2 14.7376692136 58.4615082957 75.0693740812
461 26 2 14.0932012153 57.7146377672 75.3860686092
462 26 2 13.7062868705 56.8026094339 75.6893038647
463 26 2 13.6139393819 55.8097202257 75.9705385939
464 26 2 13.8263229703 54.8276373254 76.2232368318
465 26 2 14.3258264337 53.9470429495 76.4434636386
466 26 2 15.0686683605 53.2493689069 76.6302437587
467 26 2 15.9888876887 52.799374307 76.7856505122
468 26 2 17.0043558804 52.6392429398 76.9146168182
469 27 1 59.3492467624 47.6024178825 34.4596385231
470 27 1 56.7550136412 46.3825073913 39.181901113
471 27 2 59.9019578282 47.6260890161 34.4961315796
472 27 2 60.8899367888 47.8111461878 34.7473315553
473 27 2 61.7435860221 48.1516150627 35.2256765594
474 27 2 62.3888288212 48.6020089682 35.8996625172
475 27 2 62.7705841685 49.1068218591 36.7199532041
476 27 2 62.8577872236 49.6055875452 37.6238771106
477 27 2 62.6462208001 50.0383910227 38.5411397826
478 27 2 62.158899751 50.351329567 39.4002309733
479 27 2 61.4439732266 50.5014258215 40.1349426108
480 27 2 60.5703360077 50.4605450694 40.6904034871
481 27 2 59.621348931 50.2179596374 41.0280806221
482 27 2 58.687240771 49.7813266947 41.1292914414
483 27 2 57.8568841289 49.1759903225 40.9969066435
484 27 2 57.2096949324 48.4426714688 40.655088543
485 27 2 56.8083938859 47.6337563425 40.1470887401
486 27 2 56.6932896465 46.8085215508 39.5313058533
487 28 1 55.0330931471 32.7457269254 45.0555080658
488 28 1 57.4580202378 34.153285805 49.8153922731
489 28 2 54.5785434755 33.0372053499 44.9297841137
490 28 2 53.6649791943 33.5256758317 44.9140709438
491 28 2 52.7457695815 33.9169224308 45.1887158009
492 28 2 51.9095697254 34.1928788524 45.7346717197
493 28 2 51.2374685972 34.3459871933 46.5081624569
494 28 2 50.7955980073 34.3798868245 47.4446725786
495 28 2 50.6291048681 34.3090826721 48.4648278696
496 28 2 50.7580361733 34.1576231324 49.4816300812
497 28 2 51.175511768 33.9569081247 50.408386589
498 28 2 51.8483514568 33.7428270725 51.1666121936
499 28 2 52.7200992894 33.5524876785 51.6931828372
500 28 2 53.7161693698 33.4208336567 51.9460891924
501 28 2 54.7506441617 33.3774597064 51.9082657003
502 28 2 55.7341056417 33.4439140342 51.5891460505
503 28 2 56.5817855136 33.6317342927 51.0238033257
504 28 2 57.2212916117 33.9413959545 50.2697531835
505 29 1 68.6697955583 59.195994106 62.2218816291
506 29 1 69.2251569488 57.7167243341 56.9283642985
507 29 2 69.1387017571 59.1863494387 62.5175428291
508 29 2 70.0358135672 58.9520639088 62.9798746383
509 29 2 70.8987128882 58.4618743708 63.2774800647
510 29 2 71.6615439003 57.766969415 63.3704637224
511 29 2 72.2675717425 56.9371968949 63.2375809527
512 29 2 72.6743537439 56.054697482 62.8781742182
513 29 2 72.8576079592 55.2064177632 62.3122330353
514 29 2 72.8134264034 54.4761852918 61.5785719835
515 29 2 72.5586312544 53.9370679298 60.7312928599
516 29 2 72.129241556 53.644713908 59.8348534454
517 29 2 71.5771901784 53.6322796382 58.9581923497
518 29 2 70.9655902762 53.907407595 58.168445442
519 29 2 70.3629826929 54.4515297245 57.5248265952
520 29 2 69.8370886461 55.221559873 57.0732305003
521 29 2 69.4486371194 56.1538209748 56.8420494875
522 29 2 69.2458295784 57.1698490463 56.8395856414
523 30 1 12.9275182926 27.5603017243 42.8198648802
524 30 1 9.4225078545 24.5674604342 45.8654836847
525 30 2 12.9243264153 28.1042572031 42.9270275463
526 30 2 12.6856866505 29.0971876847 43.1019278971
527 30 2 12.1629274209 29.9800277895 43.2460325406
528 30 2 11.4015500189 30.6725089105 43.3652984623
529 30 2 10.4688051459 31.111713153 43.4679466307
530 30 2 9.44756319024 31.2578081331 43.5637126782
531 30 2 8.42876081256 31.0976775926 43.6629595241
532 30 2 7.50311231269 30.6461169111 43.7757328221
533 30 2 6.75284126342 29.9444845465 43.9108453261
534 30 2 6.24418605168 29.0569323223 44.075073631
535 30 2 6.02136242656 28.0645581604 44.2725405043
536 30 2 6.10253335201 27.058014222 44.5043391069
537 30 2 6.4781535012 26.1292442057 44.7684333542
538 30 2 7.11183928755 25.3631029248 45.0598434999
539 30 2 7.94368513139 24.8296220181 45.3711000267
540 30 2 8.89572369346 24.5776267532 45.6929244726
541 31 1 4.13259291545 66.901527524 75.9579694506
542 31 1 8.37026268641 65.9650738384 79.3760391498
543 31 2 3.66462475243 66.633822174 76.0872800536
544 31 2 2.93172865817 65.9459649354 76.3386080175
545 31 2 2.44123584482 65.0711324679 76.5984829201
546 31 2 2.2379573106 64.0900751299 76.8624040225
547 31 2 2.34052523987 63.0932253929 77.1255017857
548 31 2 2.73969472926 62.1724551635 77.3829817159
549 31 2 3.39918643597 61.4127019041 77.6305613694
550 31 2 4.25899334286 60.8842268111 77.8648606868
551 31 2 5.24085023769 60.6362106939 78.0837100753
552 31 2 6.25536737803 60.6922712759 78.2863481622
553 31 2 7.21017812737 61.0483105023 78.4734911915
554 31 2 8.01835792715 61.6728880664 78.6472677403
555 31 2 8.60634723796 62.5100871097 78.8110247045
556 31 2 8.92065629494 63.4846108945 78.9690222386
557 31 2 8.93274055689 64.5086458996 79.1260454538
558 31 2 8.64160246487 65.4898657886 79.2869682675
559 32 1 38.8811019525 41.0359146716 77.1587787706
560 32 1 36.1043803138 38.8340656407 81.3966637204
561 32 2 38.8386969512 41.5867880572 77.1127145006
562 32 2 38.5288621635 42.5730579992 77.0439830162
563 32 2 37.9453966743 43.4288515409 77.0187749184
564 32 2 37.1417935954 44.0816526564 77.0577980705
565 32 2 36.1916109914 44.4774475369 77.1759058291
566 32 2 35.1817672587 44.5856478052 77.3807432003
567 32 2 34.2046187463 44.4018785641 77.6720500178
568 32 2 33.3495417212 43.948377157 78.0416846563
569 32 2 32.6947859605 43.2719662931 78.4743661192
570 32 2 32.3003424938 42.4397862829 78.9490668601
571 32 2 32.2024755804 41.5331753784 79.4409293879
572 32 2 32.4104173197 40.6402560084 79.9235319604
573 32 2 32.9055261697 39.8479026552 80.3712968556
574 32 2 33.642986074 39.2338234772 80.7618217127
575 32 2 34.5558913249 38.8594774184 81.0779214473
576 32 2 35.5613448407 38.7644723897 81.3091946261
577 33 1 18.6924855162 40.6187186099 53.3026282091
578 33 1 14.5019143904 40.1630079889 56.8732629609
579 33 2 19.0501601746 41.0276496288 53.4131987685
580 33 2 19.5234408893 41.9224608233 53.6340342328
581 33 2 19.7066710736 42.9141156482 53.8717260901
582 33 2 19.5840382472 43.9115498631 54.1237899472
583 33 2 19.1676085261 44.8231724517 54.3864314415
584 33 2 18.4962268278 45.5652138981 54.654892087
585 33 2 17.6319762612 46.0693615544 54.9238829975
586 33 2 16.6545194169 46.2889861555 55.1880669548
587 33 2 15.6538373353 46.2033919527 55.4425448815
588 33 2 14.722027975 45.8197030752 55.683302379
589 33 2 13.9449117303 45.1722141853 55.9075756291
590 33 2 13.3942091312 44.3192646111 56.1141033087
591 33 2 13.1210037092 43.3379208732 56.3032415561
592 33 2 13.1510858699 42.3169522768 56.4769315097
593 33 2 13.4826021662 41.3487398273 56.6385223788