LAMMPS input file for bananas

4320 atoms

2 atom types

0 100.793683992 xlo xhi
0 100.793683992 ylo yhi
0 100.793683992 zlo zhi

Masses

 1 1
 2 1

Atoms

1 1 1 42.356612238 75.4753921265 2.85613316848
2 1 1 37.1522102193 73.6238343929 2.79348615144
3 1 2 42.5431696646 75.6310821821 3.35446891996
4 1 2 42.6921159383 76.0462246769 4.29197717473
5 1 2 42.5637007708 76.5777938169 5.17197365501
6 1 2 42.161698274 77.1640980939 5.92569197012
7 1 2 41.5148193136 77.7384570381 6.4958756466
8 1 2 40.6740945904 78.2352789651 6.84199690275
9 1 2 39.7082233286 78.5960394821 6.94395064765
10 1 2 38.6973115246 78.7746158304 6.80388700638
11 1 2 37.7255705001 78.7414908512 6.44601534197
12 1 2 36.8736412648 78.486443396 5.91439763656
13 1 2 36.211244304 78.0194799566 5.26893235957
14 1 2 35.7908247428 77.3699226006 4.57989488227
15 1 2 35.6427721133 76.583736343 3.92153206555
16 1 2 35.7726504294 75.719339558 3.36529485696
17 1 2 36.1606910423 74.8422793003 2.97332572781
18 1 2 36.7635944999 74.0192568662 2.79279455305
19 2 1 68.679494316 40.3069197703 42.8945849843
20 2 1 67.3196027509 35.2698588485 41.0789023955
21 2 2 68.3737143176 40.4930487793 43.3179479168
22 2 2 67.6220633547 40.7786063365 43.9713449804
23 2 2 66.6951678434 40.9470761421 44.4025440608
24 2 2 65.6750568208 40.9671112058 44.5826054642
25 2 2 64.6522556687 40.8208939672 44.5054800247
26 2 2 63.7175349667 40.5057603189 44.1885604698
27 2 2 62.9536369973 40.0344424329 43.6710961196
28 2 2 62.427734007 39.4339082569 43.0106154162
29 2 2 62.1853056364 38.7429034581 42.2776823604
30 2 2 62.2459935721 38.0084198592 41.5494647909
31 2 2 62.6018112594 37.2814122592 40.9027007426
32 2 2 63.2178718556 36.6121540399 40.4067039796
33 2 2 64.0355680726 36.0456548815 40.117046231
34 2 2 64.9779140743 35.6175582501 40.0704919761
35 2 2 65.9565625296 35.3508925918 40.2816474606
36 2 2 66.8798572363 35.2539723507 40.7416293762
37 3 1 37.6531977024 19.1976733977 67.8832114751
38 3 1 35.3629778247 14.2890167217 68.9685564023
39 3 2 37.46498713 19.4471085943 67.4252371842
40 3 2 37.1588486884 19.705131874 66.4696466584
41 3 2 36.9205759673 19.6690884302 65.461987494
42 3 2 36.7531956786 19.3378510317 64.4946635379
43 3 2 36.6532728784 18.7371985868 63.656402191
44 3 2 36.6112240531 17.9174664657 63.0241671421
45 3 2 36.612190631 16.9489585653 62.6561433335
46 3 2 36.6373933012 15.9155392971 62.5864335594
47 3 2 36.6658436981 14.9069895703 62.8219500867
48 3 2 36.6762574341 14.0108235019 63.3417846212
49 3 2 36.6489941153 13.3043117389 64.0991140419
50 3 2 36.5678475105 12.8474384452 65.0254682038
51 3 2 36.4215227061 12.6774339054 66.0369708084
52 3 2 36.2046656071 12.8053810839 67.0419845045
53 3 2 35.9183509487 13.2152054424 67.9494633873
54 3 2 35.569984337 13.8651400911 68.6772515897
55 4 1 33.1345176536 29.6682296103 62.313049189
56 4 1 28.2251481236 27.8072729756 64.0314560916
57 4 2 33.5174388005 29.7187391411 62.7107950508
58 4 2 34.062753994 29.9308453351 63.5658344145
59 4 2 34.3406526421 30.2654304082 64.506193485
60 4 2 34.3222024187 30.6765650784 65.4570235872
61 4 2 34.0054824051 31.1113427722 66.3425216398
62 4 2 33.4157581771 31.514701918 67.0928394029
63 4 2 32.6031789146 31.8344446606 67.6504499587
64 4 2 31.6382064386 32.0259945567 67.9753911364
65 4 2 30.6051928039 32.0564595982 68.048907957
66 4 2 29.5946918352 31.9076302309 67.8751620998
67 4 2 28.6952053878 31.577639107 67.4808525762
68 4 2 27.9851166403 31.0811312883 66.9127821864
69 4 2 27.525545677 30.4479293884 66.233591569
70 4 2 27.3547785556 29.7203153211 65.5160496743
71 4 2 27.4847776359 28.9491764169 64.8364210693
72 4 2 27.9000912419 28.1893671788 64.2675146257
73 5 1 66.4910590287 1.85638167536 22.3273068982
74 5 1 71.9442736619 2.61060769444 22.7872898736
75 5 2 66.2876243685 1.92785961902 21.8165360781
76 5 2 66.026977824 2.26381345016 20.8717353513
77 5 2 65.9538357125 2.82857077405 20.0062011765
78 5 2 66.0887684071 3.56301633147 19.2879860957
79 5 2 66.4333808182 4.39256823427 18.7717149093
80 5 2 66.9701661106 5.23397590511 18.4936057716
81 5 2 67.6641014046 6.00290814506 18.4681690026
82 5 2 68.465840018 6.62163969703 18.6868845112
83 5 2 69.3162092838 7.02613569518 19.1189783788
84 5 2 70.1516039813 7.17188827181 19.7142278197
85 5 2 70.9097837818 7.0379733305 20.4075388537
86 5 2 71.5355462877 6.62895772164 21.1248794486
87 5 2 71.9857585842 5.97448298616 21.7900273418
88 5 2 72.2332886887 5.12656360836 22.3315174962
89 5 2 72.2694785587 4.15484603462 22.6891559468
90 5 2 72.1049332495 3.14026058601 22.8195063202
91 6 1 23.7159910286 66.038200744 73.281721587
92 6 1 21.8059564978 65.1389395718 78.386727806
93 6 2 24.0804828923 66.4537254496 73.2385187125
94 6 2 24.5978065744 67.3506148452 73.2761435885
95 6 2 24.869912011 68.3297788525 73.4777533338
96 6 2 24.8821464674 69.2999518449 73.8411603975
97 6 2 24.6435437539 70.170687703 74.3494298356
98 6 2 24.1860008187 70.8606037363 74.9724228858
99 6 2 23.5613704258 71.3047984978 75.6695440354
100 6 2 22.8367349144 71.4607673781 76.3934411933
101 6 2 22.0882918231 71.3122767863 77.0943217069
102 6 2 21.3944086876 70.8708437985 77.7244908293
103 6 2 20.8284800497 70.1746864074 78.2426989677
104 6 2 20.4522377404 69.2852400542 78.617901474
105 6 2 20.3101241892 68.2815579524 78.8320882812
106 6 2 20.4252416147 67.2531055987 78.8819254726
107 6 2 20.7972463199 66.291606232 78.7790591602
108 6 2 21.4023800184 65.4826805052 78.5490539719
109 7 1 78.160157231 93.1171904051 1.64923441088
110 7 1 83.57926672 92.1592383871 1.16594222255
111 7 2 77.9658765982 93.103319987 2.16831459282
112 7 2 77.7164608209 92.8716106424 3.14686073931
113 7 2 77.6464028225 92.3988456376 4.06611866734
114 7 2 77.7764279762 91.7363871881 4.85205268064
115 7 2 78.1090246108 90.9528875598 5.44277920144
116 7 2 78.6282172062 90.1280315988 5.79420729314
117 7 2 79.3010225188 89.34527367 5.88405743138
118 7 2 80.0804559168 88.6842310154 5.71389222313
119 7 2 80.9098139032 88.2134268551 5.30897397922
120 7 2 81.7278424882 87.9840446787 4.71596212223
121 7 2 82.4743203266 88.0252630076 3.99866030488
122 7 2 83.0955477329 88.34159585 3.23220087753
123 7 2 83.5492412631 88.9124812617 2.49619677534
124 7 2 83.8083877388 89.6941555123 1.86748501197
125 7 2 83.8637064253 90.6236420317 1.41312319117
126 7 2 83.7244949462 91.6244915571 1.18427738541
127 8 1 79.5148108054 46.7198548266 31.7829604453
128 8 1 77.8580304524 48.3524558634 36.7937172522
129 8 2 80.0510811478 46.8086449791 31.6738182595
130 8 2 81.0047101192 47.1923896498 31.5442735803
131 8 2 81.8257800379 47.8242306985 31.5358421611
132 8 2 82.4475853967 48.6426450551 31.6662493997
133 8 2 82.82158312 49.5691039912 31.940565921
134 8 2 82.9218171363 50.5152308036 32.3507454037
135 8 2 82.7472842038 51.3908561149 32.8763579805
136 8 2 82.3220253541 52.112236571 33.4864523662
137 8 2 81.6929346158 52.6096878241 34.1423769846
138 8 2 80.9254847495 52.8339360747 34.8013029561
139 8 2 80.0977595803 52.760609247 35.4201278359
140 8 2 79.2933368663 52.3924584379 35.9594042864
141 8 2 78.5936704089 51.7591071625 36.386935597
142 8 2 78.0706657568 50.9143512494 36.6807103276
143 8 2 77.7801262074 49.9312554949 36.8309085931
144 8 2 77.7566664851 48.8954940022 36.8407971193
145 9 1 28.4587664747 98.3382626085 89.9871438174
146 9 1 28.5630552519 95.8541390566 85.0539658263
147 9 2 28.023079687 98.2088782719 90.3046628002
148 9 2 27.0860762595 98.0204180793 90.7046094766
149 9 2 26.0633124479 97.900406142 90.8186328593
150 9 2 25.045819228 97.8410796007 90.6325202053
151 9 2 24.124147175 97.8291442842 90.1594153689
152 9 2 23.3801130212 97.8469864379 89.4386207749
153 9 2 22.879342279 97.8742781703 88.5320151074
154 9 2 22.6652876511 97.8898302863 87.5184132333
155 9 2 22.7552684325 97.8735236252 86.4863824378
156 9 2 23.1388919034 97.8081428687 85.5261697528
157 9 2 23.7790005978 97.6809456714 84.7214761816
158 9 2 24.615059107 97.4848240909 84.1418275759
159 9 2 25.5686717203 97.2189524583 83.8362375402
160 9 2 26.5507279848 96.8888626355 83.828739973
161 9 2 27.4695248846 96.5059398009 84.1161984408
162 9 2 28.2391253261 96.0863847205 84.668592056
163 10 1 21.8474106634 66.5015250119 10.0785846875
164 10 1 20.1071229638 62.6828167395 13.6711961213
165 10 2 21.4833601849 66.6314210603 9.68112292354
166 10 2 20.7914618132 66.6409302108 8.90999632529
167 10 2 20.1260895365 66.3471551359 8.1721440705
168 10 2 19.531279478 65.7764782566 7.54446668138
169 10 2 19.0446362032 64.980520853 7.09382253563
170 10 2 18.6939051648 64.0314379232 6.87093390399
171 10 2 18.494443778 63.0153414474 6.90576375079
172 10 2 18.4478216337 62.0244515116 7.20478468991
173 10 2 18.5416774343 61.1486906931 7.75038902327
174 10 2 18.7508456932 60.4674878577 8.50249363546
175 10 2 19.0396505012 60.0425384311 9.40219346259
176 10 2 19.3651572906 59.9121810258 10.3771305314
177 10 2 19.681086206 60.0879029789 11.3480891952
178 10 2 19.94203039 60.5532933119 12.2362164282
179 10 2 20.1075946962 61.2655385479 12.9702090681
180 10 2 20.1460775992 62.1593250452 13.492812909
181 11 1 16.5751045326 3.75566612393 18.5656607652
182 11 1 15.4810505523 8.97893446776 19.9934229156
183 11 2 16.1928530729 3.51678810295 18.2428563342
184 11 2 15.3294714012 3.14918431876 17.8036643967
185 11 2 14.3380293819 2.92545019624 17.6025779081
186 11 2 13.3038587485 2.88052476093 17.6464278518
187 11 2 12.3161858337 3.03304910447 17.9197199102
188 11 2 11.4599988273 3.38366729887 18.3860467301
189 11 2 10.8083013298 3.91496769112 18.9914063556
190 11 2 10.4154582699 4.59306992878 19.6691243624
191 11 2 10.3122406859 5.37071306356 20.345931053
192 11 2 10.5030210281 6.19156326046 20.948639794
193 11 2 10.9653746216 6.99534847626 21.410817782
194 11 2 11.6521236157 7.72335209513 21.6788412162
195 11 2 12.4956371184 8.32376479128 21.7167829643
196 11 2 13.4139955719 8.75640681048 21.509687225
197 11 2 14.3184575012 8.99639024732 21.0649327088
198 11 2 15.1215480622 9.03638751121 20.4115600886
199 12 1 54.6556409111 44.1337378578 15.4315475749
200 12 1 59.3708079484 44.1462511232 12.5531740256
201 12 2 54.5987279995 44.5541650364 15.7884558209
202 12 2 54.7069991159 45.2740148423 16.5257099382
203 12 2 55.0911900442 45.8630788539 17.2865324747
204 12 2 55.7240261065 46.2822248137 17.9917169851
205 12 2 56.5555692857 46.5078080406 18.5671282815
206 12 2 57.517769942 46.5338265789 18.9504596576
207 12 2 58.5306693557 46.3724682613 19.0969119785
208 12 2 59.5096877509 46.0529998199 18.9832770018
209 12 2 60.3733335161 45.6190993021 18.6100527475
210 12 2 61.0506309466 45.1248749329 18.0013981041
211 12 2 61.4875894902 44.6299332956 17.2029308111
212 12 2 61.652124842 44.1939463502 16.2775695235
213 12 2 61.536983343 43.8712124942 15.2997989448
214 12 2 61.1604031314 43.7057074089 14.3488807453
215 12 2 60.5644517855 43.727075793 13.5016290727
216 12 2 59.8111919762 43.9479293283 12.8254091479
217 13 1 77.9717013638 86.3689733735 50.257758659
218 13 1 79.2736039074 86.4040320991 55.6263536068
219 13 2 78.0439630999 86.8527246115 49.996713511
220 13 2 78.0543641934 87.8420633243 49.689222471
221 13 2 77.9160621282 88.8679948628 49.6469492144
222 13 2 77.6578111677 89.8434691538 49.8819095519
223 13 2 77.3192985961 90.6860351673 50.3808501926
224 13 2 76.9475273292 91.3253561075 51.1064567469
225 13 2 76.5925317239 91.709620424 52.0007548328
226 13 2 76.3028170803 91.8102642958 52.9903942861
227 13 2 76.1209385136 91.6245751474 53.9933348319
228 13 2 76.0796221685 91.1759388928 54.926323836
229 13 2 76.198782319 90.5117083719 55.7124845606
230 13 2 76.4837062354 89.6988872658 56.2883232729
231 13 2 76.924572264 88.8180228904 56.6095165294
232 13 2 77.4973450442 87.9558645234 56.6549511394
233 13 2 78.1659662674 87.1974564402 56.4286485758
234 13 2 78.8856412959 86.6183863549 55.9593984284
235 14 1 15.239336595 84.1900798134 70.3241040268
236 14 1 17.1001934002 79.4962974924 68.0827627912
237 14 2 15.2941465524 84.2237739045 70.8747783088
238 14 2 15.2935102792 84.0753122207 71.9001605472
239 14 2 15.1737755229 83.6577385935 72.8407698525
240 14 2 14.9629105884 83.0007020691 73.6136145951
241 14 2 14.6971900528 82.1556780969 74.150994437
242 14 2 14.4178884348 81.1912766796 74.4066710366
243 14 2 14.1675181322 80.1869887549 74.3600825496
244 14 2 13.985954531 79.2259408092 74.018217787
245 14 2 13.90680147 78.3873181203 73.4149792025
246 14 2 13.9543283412 77.7391472311 72.6080927755
247 14 2 14.1412579993 77.3320955119 71.6738464418
248 14 2 14.4676071075 77.1948529652 70.7001366523
249 14 2 14.9206846189 77.3315172085 69.7784568465
250 14 2 15.4762485311 77.7212199876 68.9955580697
251 14 2 16.1007154804 78.3200292619 68.4255418477
252 14 2 16.7542217755 79.0649534927 68.1231060301
253 15 1 25.9952474935 41.3155523061 35.7738202202
254 15 1 23.8353391212 39.9767073327 40.6789482534
255 15 2 26.4635241936 41.6114042024 35.7976985707
256 15 2 27.2141630986 42.2993590433 35.9892954975
257 15 2 27.750827425 43.1003427031 36.3685929911
258 15 2 28.0335234776 43.9333212206 36.9160231167
259 15 2 28.0454060905 44.7143443888 37.5966930995
260 15 2 27.794314019 45.364197592 38.3635657076
261 15 2 27.3120554581 45.8156220062 39.1617465705
262 15 2 26.6515088102 46.0194450611 39.9334876536
263 15 2 25.8818029607 45.9490623887 40.623450838
264 15 2 25.0820163641 45.6028627399 41.1837518413
265 15 2 24.3339692548 45.0043748461 41.5783247426
266 15 2 23.7147659513 44.2001228376 41.7862092943
267 15 2 23.2897670033 43.255385694 41.8034613933
268 15 2 23.1066317528 42.2482472394 41.6435125746
269 15 2 23.1909743121 41.2624790108 41.3359457634
270 15 2 23.544028906 40.379904706 40.9237988706
271 16 1 87.5082926586 95.0403546588 91.8672290366
272 16 1 85.4420404761 92.8096410313 96.4794421379
273 16 2 87.4890035382 95.5940551318 91.8466061345
274 16 2 87.2274743224 96.5963756683 91.8667561331
275 16 2 86.698172227 97.4802359187 91.9766668278
276 16 2 85.9533500029 98.169795192 92.1845078109
277 16 2 85.0649044846 98.6069228121 92.4895225907
278 16 2 84.1178233859 98.7564965733 92.8820975436
279 16 2 83.2024388971 98.6096040355 93.3446381703
280 16 2 82.4061941474 98.1843548696 93.8531727871
281 16 2 81.8056729968 97.5242302089 94.3795374814
282 16 2 81.4596196229 96.6941194606 94.8939431764
283 16 2 81.4035841451 95.7744058092 95.3676908264
284 16 2 81.646682327 94.8536395044 95.7757872574
285 16 2 82.1707646985 94.0204667424 96.099223229
286 16 2 82.9320708317 93.3555498022 96.3267060752
287 16 2 83.865217987 92.9242148943 96.4556890008
288 16 2 84.8891605745 92.7704978512 96.4926032154
289 17 1 54.1500370202 83.7932555041 85.9627370763
290 17 1 48.9374827149 82.0522008998 85.4006004909
291 17 2 54.3530337084 84.0677161955 85.5258786765
292 17 2 54.6521836781 84.3948961746 84.5894425771
293 17 2 54.8105263365 84.4637828912 83.5678593774
294 17 2 54.7983505903 84.278287575 82.5485982479
295 17 2 54.6014876429 83.8655076978 81.6189167089
296 17 2 54.2226024423 83.2732571118 80.8579073401
297 17 2 53.6809507787 82.5657079446 80.329288704
298 17 2 53.0106241702 81.8175414812 80.0755975688
299 17 2 52.257442512 81.1071411647 80.1143117959
300 17 2 51.474777716 80.5094481549 80.4362572794
301 17 2 50.7186890032 80.0891306417 81.0064441413
302 17 2 50.0428132554 79.8946895126 81.7672559656
303 17 2 49.4934761573 79.9540376265 82.6437013805
304 17 2 49.1054697338 80.271955631 83.5502493213
305 17 2 48.8988811501 80.8296562194 84.3986249586
306 17 2 48.87726182 81.5864965432 85.105855713
307 18 1 74.7772749465 90.1188006613 38.4032831572
308 18 1 79.5966005528 87.4576778445 38.8621046004
309 18 2 74.3352449803 89.7913147007 38.3344061462
310 18 2 73.6402759584 89.0834014595 38.0355300636
311 18 2 73.1745010777 88.2955756423 37.5499023736
312 18 2 72.9846258297 87.484880631 36.9333222896
313 18 2 73.0922081924 86.7104442735 36.2535249854
314 18 2 73.4916936772 86.0280895384 35.584007716
315 18 2 74.1509216062 85.4852464003 34.9973307382
316 18 2 75.014056472 85.1166287248 34.558503638
317 18 2 76.0066771949 84.9410701922 34.3190598799
318 18 2 77.0425604053 84.9598076579 34.3123596699
319 18 2 78.0315394738 85.1563684163 34.5505492617
320 18 2 78.8877229577 85.4980716442 35.0234538578
321 18 2 79.5373233773 85.9390071699 35.6995050158
322 18 2 79.925382747 86.4242200632 36.5286180268
323 18 2 80.0207818486 86.8947196302 37.4467570032
324 18 2 79.8190766654 87.2928562573 38.3817715787
325 19 1 70.2436716773 8.76682990066 36.0318212287
326 19 1 73.3264008609 13.3213710821 36.5523272022
327 19 2 70.519399662 8.28981994663 36.0936044811
328 19 2 71.1818599734 7.49426088731 36.0525907024
329 19 2 71.9921874004 6.8904448325 35.8240613954
330 19 2 72.888772267 6.53778852391 35.4429851351
331 19 2 73.8021427622 6.47281616368 34.9582347434
332 19 2 74.6612971096 6.70583033095 34.4281326624
333 19 2 75.4001751901 7.21997292933 33.9151350192
334 19 2 75.9636797445 7.97276175735 33.4801389173
335 19 2 76.3126983422 8.89996264753 33.1769318281
336 19 2 76.4276683739 9.92144423908 33.0472890068
337 19 2 76.3103601317 10.9484817373 33.1171657895
338 19 2 75.9837154515 11.8918439414 33.3943318334
339 19 2 75.4897566261 12.6699264301 33.867662934
340 19 2 74.8857561853 13.2161895862 34.5081549659
341 19 2 74.2390166582 13.4852235055 35.2715675317
342 19 2 73.6207361272 13.4568869872 36.1024563557
343 20 1 9.93582565338 6.64436316676 4.45438570415
344 20 1 9.35915702192 3.33104469722 8.83700650343
345 20 2 9.72701014543 7.15402793039 4.51778523414
346 20 2 9.14522733961 7.99005578058 4.70761729607
347 20 2 8.36570953949 8.61135160689 4.99009474062
348 20 2 7.4639652629 8.9650768564 5.35777084627
349 20 2 6.5266436443 9.0227813191 5.79543326124
350 20 2 5.64363659781 8.78299628853 6.28149056872
351 20 2 4.89988540947 8.2713684304 6.78994028678
352 20 2 4.36763856602 7.53832215758 7.29273892513
353 20 2 4.0998664985 6.65446357966 7.7623580743
354 20 2 4.12543346898 5.70414494473 8.17429354655
355 20 2 4.44646667024 4.77777615746 8.50929886715
356 20 2 5.03816233786 3.96358415791 8.75513953905
357 20 2 5.85104654701 3.33957127176 8.90770818462
358 20 2 6.81548462849 2.96640550682 8.97139892215
359 20 2 7.8480281827 2.88189082624 8.95870685367
360 20 2 8.85902117824 3.09752141834 8.88908916985
361 21 1 29.9767670871 82.1925680315 71.1447999783
362 21 1 26.8129240336 85.539450422 74.1954501482
363 21 2 30.2746492099 81.8250698322 71.4339243503
364 21 2 30.8954260734 81.3278611057 72.0979044548
365 21 2 31.5390725356 81.1120401263 72.8805860936
366 21 2 32.1346302122 81.1923981709 73.7245669285
367 21 2 32.6155238831 81.5567305898 74.5668573636
368 21 2 32.9256296459 82.1669492284 75.3446218782
369 21 2 33.0243904596 82.9625540602 76.0009063169
370 21 2 32.8905128102 83.8661476026 76.4898291087
371 21 2 32.5239075582 84.7904894908 76.7807632491
372 21 2 31.9456980627 85.6464482037 76.8611278702
373 21 2 31.1962948442 86.3511251638 76.7375349529
374 21 2 30.3317122736 86.8354107212 76.4351866625
375 21 2 29.4184630116 87.050283313 75.9955782391
376 21 2 28.527495558 86.9712776483 75.4727158168
377 21 2 27.7277274851 86.6007146537 74.9281939092
378 21 2 27.0797637857 85.9674899272 74.4255812341
379 22 1 81.7265288833 62.9170404075 79.0013338339
380 22 1 82.7447944096 57.4887132216 79.1212935885
381 22 2 81.2407794452 63.0586299681 78.7746590278
382 22 2 80.4047062744 63.1837829926 78.1756862532
383 22 2 79.7188991397 63.1064118428 77.4029428997
384 22 2 79.2343615123 62.8195636097 76.5332352534
385 22 2 78.9837516856 62.3353786611 75.6522076367
386 22 2 78.9784060591 61.6839840786 74.8465361569
387 22 2 79.2073058561 60.9107476551 74.1960284111
388 22 2 79.6380814557 60.0721427417 73.7663492363
389 22 2 80.2199627971 59.2306008526 73.603035536
390 22 2 80.8884069349 58.4488211996 73.7273457123
391 22 2 81.5709809563 57.7840558262 74.1343220198
392 22 2 82.1939640473 57.2828912372 74.7932424507
393 22 2 82.689066948 56.9770021633 75.6504209638
394 22 2 82.9996563361 56.8802644936 76.6341008235
395 22 2 83.0859168026 56.9874905259 77.6609950347
396 22 2 82.9284799203 57.2749018118 78.6438777297
397 23 1 18.8049444776 3.74324530134 2.78152247088
398 23 1 23.5944830325 1.24659754036 3.94129031382
399 23 2 18.7949399584 4.2881619549 2.88324433835
400 23 2 18.8605425425 5.2416819445 3.28317675961
401 23 2 19.0449919297 6.03918686229 3.9183258294
402 23 2 19.3491344583 6.61328644473 4.7253927429
403 23 2 19.7629067571 6.9169532275 5.62540884332
404 23 2 20.2662529939 6.92780897314 6.53093340394
405 23 2 20.8309529117 6.65016438763 7.35402361657
406 23 2 21.4231940294 6.11462621104 8.01425034356
407 23 2 22.0066535593 5.37530749497 8.44602901865
408 23 2 22.5458091317 4.50489534254 8.60459750492
409 23 2 23.0091765643 3.5880256732 8.47009604397
410 23 2 23.3721795613 2.71356888493 8.04937741973
411 23 2 23.6193897769 1.96652955492 7.37538234562
412 23 2 23.7459330676 1.42029849961 6.50413700649
413 23 2 23.757933758 1.12996339794 5.50964642164
414 23 2 23.6719564243 1.12728769659 4.47714908514
415 24 1 79.4680513778 17.1059390411 43.7872932838
416 24 1 75.2324220405 18.0939173634 47.1933663912
417 24 2 79.9606682896 17.283389401 43.9695610428
418 24 2 80.7655336028 17.8167886466 44.3452298911
419 24 2 81.3548905734 18.5655498249 44.7520038706
420 24 2 81.6738564326 19.4575474438 45.171588236
421 24 2 81.692193839 20.4076003925 45.58452061
422 24 2 81.4070669309 21.325235972 45.971944926
423 24 2 80.843299808 22.12293624 46.3173301091
424 24 2 80.0511138807 22.7241150372 46.6079768389
425 24 2 79.1015503229 23.0700986111 46.8361750586
426 24 2 78.079994859 23.1254735718 46.9999067264
427 24 2 77.0783950831 22.8813147276 47.1030297542
428 24 2 76.1868796817 22.3559985927 47.1549263695
429 24 2 75.4855434449 21.5935284167 47.1696479506
430 24 2 75.0371468401 20.6595234065 47.1646342804
431 24 2 74.8813955635 19.6352377104 47.1591239575
432 24 2 75.0313214715 18.6101543199 47.172400849
433 25 1 90.0891988408 71.9624946197 4.41163303485
434 25 1 90.7806245107 67.1301907341 1.8253691734
435 25 2 89.5986931032 72.0251654469 4.6623481658
436 25 2 88.5969794868 72.0743157563 4.92235602902
437 25 2 87.5628204594 72.0165883289 4.89720326792
438 25 2 86.5873757883 71.839608425 4.59614543586
439 25 2 85.7564535838 71.5418708492 4.05358609596
440 25 2 85.14268912 71.1328771454 3.32594102834
441 25 2 84.7989243232 70.632269556 2.48649608248
442 25 2 84.7533913717 70.0680406844 1.61872736796
443 25 2 85.0071394082 69.4739820436 0.808692630171
444 25 2 85.5339389133 68.8866040505 0.137187316829
445 25 2 86.2826724559 68.3418081987 -0.327619711125
446 25 2 87.1819939108 67.8716147336 -0.536399589013
447 25 2 88.1468314668 67.5012440923 -0.463159642581
448 25 2 89.0861416954 67.2468181284 -0.107612550792
449 25 2 89.9112079157 67.1138906479 0.504797465635
450 25 2 90.5437264828 67.096941195 1.32521381693
451 26 1 64.1097067065 9.54328575863 13.2240506341
452 26 1 60.8492499384 6.06622053634 16.0164385307
453 26 2 64.1370161414 10.0562672797 13.4325829862
454 26 2 63.9533172164 10.9998283217 13.8191024244
455 26 2 63.4801660973 11.8452015262 14.1864199639
456 26 2 62.7606107757 12.5118689556 14.5199536037
457 26 2 61.8601583275 12.935601226 14.8082006551
458 26 2 60.8608041182 13.074311844 15.0437861811
459 26 2 59.8535581446 12.9118932779 15.2241352016
460 26 2 58.9301497166 12.4596851163 15.3517073967
461 26 2 58.174666576 11.7554404951 15.4337729128
462 26 2 57.6558905234 10.8598849996 15.4817497087
463 26 2 57.421028141 9.85118169014 15.5101628387
464 26 2 57.4914080389 8.81780674775 15.5353205332
465 26 2 57.860536809 7.85048510694 15.5738277466
466 26 2 58.4946908821 7.03392112031 15.6410726605
467 26 2 59.3359903411 6.43907798323 15.7498240918
468 26 2 60.3076745203 6.11670962822 15.9090676495
469 27 1 21.3075408108 91.6823584248 -0.142704359528
470 27 1 18.9863938758 88.429308758 3.67147128303
471 27 2 21.3008968386 92.2237348816 -0.0233352777775
472 27 2 21.0599217778 93.1965084862 0.239519331155
473 27 2 20.5449178568 94.0406500081 0.548786308988
474 27 2 19.8060992071 94.6790767019 0.895208552408
475 27 2 18.9140800748 95.0534561791 1.26614235495
476 27 2 17.9534385205 95.1295232493 1.64670984706
477 27 2 17.0150073549 94.9002031006 2.0211550741
478 27 2 16.1875949714 94.3862561499 2.37428010957
479 27 2 15.5498906981 93.6343857863 2.69283030542
480 27 2 15.1632924757 92.7129814822 2.96670241781
481 27 2 15.0663105997 91.7058852754 3.18986549084
482 27 2 15.2710576097 90.7047497917 3.36091056196
483 27 2 15.7621442638 89.8006843529 3.48317908524
484 27 2 16.4980822267 89.0759506056 3.56445836668
485 27 2 17.4150656208 88.5964645922 3.61627177215
486 27 2 18.4327867615 88.4057886794 3.65282840333
487 28 1 26.8448188294 6.24741589297 65.3265860516
488 28 1 31.8447884311 4.28602818048 66.6193556694
489 28 2 26.6887760436 6.16148975005 64.8015632569
490 28 2 26.6078848612 6.09303516917 63.7709223892
491 28 2 26.8123716922 6.13458961475 62.756078374
492 28 2 27.2905647438 6.26476808187 61.8462239993
493 28 2 28.0058446327 6.45410772293 61.1209825277
494 28 2 28.8999821441 6.66775330745 60.6431502496
495 28 2 29.898445669 6.86863418317 60.4529727682
496 28 2 30.917194561 7.0208431669 60.564476721
497 28 2 31.8703392168 7.09290938835 60.9641912893
498 28 2 32.6779696838 7.06066677578 61.6123760267
499 28 2 33.2734392389 6.9094567289 62.4466430954
500 28 2 33.6094390589 6.63546421106 63.3876437502
501 28 2 33.6623102937 6.24606547969 64.3463007648
502 28 2 33.4342005067 5.75915576013 65.2319275831
503 28 2 32.9528679306 5.20151814365 65.960494156
504 28 2 32.2691513787 4.6063823803 66.462286056
505 29 1 65.691334643 84.1791342584 56.3795784167
506 29 1 64.0866836993 79.5337083968 58.9020979854
507 29 2 66.0263106625 84.1047377122 55.9441041829
508 29 2 66.7735353117 83.8312784391 55.2805340202
509 29 2 67.611560585 83.3922874127 54.8580999649
510 29 2 68.4565280577 82.8119979903 54.707288269
511 29 2 69.2239465418 82.1275225004 54.8338275326
512 29 2 69.8363932327 81.3854695533 55.218166557
513 29 2 70.2305705902 80.6376957903 55.8172563844
514 29 2 70.3630757409 79.9365792899 56.5684740952
515 29 2 70.2143565332 79.3302454459 57.3953307201
516 29 2 69.7904936645 78.8581804663 58.2144430046
517 29 2 69.1226464412 78.5476323108 58.9431335704
518 29 2 68.2642126917 78.4111271124 59.506966737
519 29 2 67.2859616968 78.4453274539 59.8465331352
520 29 2 66.269583759 78.6313365641 59.9228647126
521 29 2 65.3002443498 78.9364207084 59.7209865668
522 29 2 64.4588215044 79.3169927812 59.2512818683
523 30 1 86.0756484036 68.0301450004 40.3227905523
524 30 1 84.0143514705 63.8544462643 43.2947572547
525 30 2 85.7785757684 68.4979474322 40.3398294003
526 30 2 85.0445879266 69.2288761659 40.3184976078
527 30 2 84.1329610161 69.7157532853 40.245442438
528 30 2 83.1210367022 69.9145022743 40.1456524912
529 30 2 82.0952984904 69.8073087258 40.0465531712
530 30 2 81.1434889862 69.4042440774 39.975506933
531 30 2 80.3466123907 68.7423476265 39.9573192683
532 30 2 79.7715511849 67.8822504977 40.0119777509
533 30 2 79.4649699695 66.9026492774 40.152830223
534 30 2 79.4490621119 65.8931330309 40.3853681752
535 30 2 79.7195268797 64.9460174978 40.7067262115
536 30 2 80.2459614413 64.1479307596 41.1059432226
537 30 2 80.9746320022 63.5719173216 41.564961462
538 30 2 81.8333714974 63.2707803011 42.0602724607
539 30 2 82.738157426 63.2722685649 42.565059762
540 30 2 83.600770278 63.5765474936 43.0516431694
541 31 1 65.4326158618 54.3682543185 73.3399501979
542 31 1 69.9494713777 56.8994574546 71.4140691026
543 31 2 65.4990450401 54.1095796653 73.8258063248
544 31 2 65.8100722307 53.5311127193 74.6271103186
545 31 2 66.3480347427 52.8861588927 75.2338070372
546 31 2 67.0754728312 52.2456661285 75.5999393323
547 31 2 67.9376565588 51.6801757558 75.70147686
548 31 2 68.8675742831 51.2533928362 75.5385063819
549 31 2 69.7920405892 51.0163796178 75.1352238575
550 31 2 70.6383669441 51.0029013473 74.5377290472
551 31 2 71.3409870628 51.2263486587 73.8098236419
552 31 2 71.8474330994 51.6785170524 73.0271959099
553 31 2 72.1231179514 52.3303547133 72.2705219131
554 31 2 72.1544877814 53.1346105063 71.6181121
555 31 2 71.9502574134 54.0301407912 71.1387735174
556 31 2 71.5406159996 54.9474825015 70.8855382318
557 31 2 70.9744753601 55.8151845177 70.8908295988
558 31 2 70.3150118011 56.5663202458 71.1635069605
559 32 1 74.9296361127 32.7910552138 41.7640476771
560 32 1 73.7864092781 29.5848393128 46.1150479141
561 32 2 74.5804135819 33.2149048807 41.6880432572
562 32 2 73.7632698765 33.840000635 41.5656444258
563 32 2 72.7956112255 34.2032077128 41.4937600404
564 32 2 71.7621663789 34.276903656 41.4970262797
565 32 2 70.753660323 34.0598541726 41.5932295437
566 32 2 69.8585449396 33.5773256389 41.7916852712
567 32 2 69.1549368539 32.8787821375 42.0923888621
568 32 2 68.7034973129 32.0333769376 42.4860160968
569 32 2 68.5419030745 31.1236493598 42.9547730141
570 32 2 68.6814122722 30.2380015375 43.4740177829
571 32 2 69.1058382659 29.4626407989 44.0145067393
572 32 2 69.7730250111 28.8737220991 44.5450598688
573 32 2 70.6186894697 28.5304066997 45.0354027806
574 32 2 71.5622808371 28.4694697781 45.458926138
575 32 2 72.5143225324 28.7019484679 45.795111028
576 32 2 73.3845677503 29.2121358541 46.0313992055
577 33 1 9.47876750033 11.9185795753 41.5665633667
578 33 1 6.13527300799 13.630604205 45.6172432242
579 33 2 9.67739809534 12.3215162021 41.2416486862
580 33 2 9.82252687012 13.1380894181 40.6206850538
581 33 2 9.66575411624 13.9833647112 40.0424273312
582 33 2 9.22450400282 14.7943632299 39.5722893183
583 33 2 8.54213004994 15.5112303592 39.2658299923
584 33 2 7.6839635712 16.0826913087 39.1636894557
585 33 2 6.73135889906 16.4707246723 39.2878846991
586 33 2 5.77427815493 16.6540279785 39.6398028122
587 33 2 4.90309144218 16.6299593532 40.2000745534
588 33 2 4.20033985282 16.4147783194 40.9303398049
589 33 2 3.73321206753 16.0421637857 41.7767439948
590 33 2 3.54742028705 15.5601443032 42.6748467974
591 33 2 3.66303368718 15.0267203916 43.5554956964
592 33 2 4.07264916714 14.5045779472 44.3511290526
593 33 2 4.74206612234 14.0553745904 45.001934166