LAMMPS input file for bananas

4320 atoms

2 atom types

0 126.992084157 xlo xhi
0 126.992084157 ylo yhi
0 126.992084157 zlo zhi

Masses

 1 1
 2 1

Atoms

1 1 1 80.4234760203 91.4931380218 19.0911783995
2 1 1 82.3194371182 92.3414699862 24.21012902
3 1 2 79.9901030351 91.8076556267 18.9474838625
4 1 2 79.091143012 92.3186572866 18.8826904089
5 1 2 78.1526337388 92.7033278045 19.0940643617
6 1 2 77.2645389693 92.9433608871 19.5706373474
7 1 2 76.5122273102 93.0336335571 20.2772688099
8 1 2 75.9686911006 92.9826730985 21.1578489776
9 1 2 75.6878933553 92.8118798172 22.1404131193
10 1 2 75.6998491805 92.553576461 23.1437009372
11 1 2 76.0078899766 92.2480620868 24.0845632259
12 1 2 76.5883597907 91.9399389099 24.8855407
13 1 2 77.3927714926 91.6740469306 25.4819242011
14 1 2 78.3522262478 91.4913768889 25.8276527647
15 1 2 79.3836934619 91.4253340673 25.8995119538
16 1 2 80.3975787974 91.4986934889 25.699249793
17 1 2 81.3058904577 91.7215240351 25.2534174406
18 1 2 82.030259405 92.0902706936 24.6109491213
19 2 1 18.2947970766 75.3407613348 116.8913907
20 2 1 15.427938356 70.6972344506 117.749743898
21 2 2 18.0778615588 75.7953957221 117.122968209
22 2 2 17.475545859 76.5726939814 117.449270562
23 2 2 16.660912731 77.1881245777 117.625531899
24 2 2 15.7016580934 77.5787131922 117.652384939
25 2 2 14.6786597294 77.7019792518 117.544080567
26 2 2 13.6786054921 77.5398079197 117.327188906
27 2 2 12.7860919389 77.1001012144 117.038177519
28 2 2 12.0759135813 76.4160577621 116.720087489
29 2 2 11.6062455652 75.5431468303 116.418610341
30 2 2 11.4133411613 74.5540524523 116.177923379
31 2 2 11.5082273772 73.5320484723 116.036663045
32 2 2 11.8756998744 72.5634083566 116.024403308
33 2 2 12.4757088036 71.7295415978 116.158960079
34 2 2 13.2470092412 71.0995734575 116.444767336
35 2 2 14.1127435003 70.7240443829 116.87247298
36 2 2 14.9874465038 70.6303033806 117.419791253
37 3 1 10.1806080387 8.21098886263 101.401771387
38 3 1 8.62488673993 3.08143460086 102.737958266
39 3 2 9.97834369241 8.60939838704 101.730009978
40 3 2 9.3949350916 9.24747332167 102.300925728
41 3 2 8.59281921156 9.68931003547 102.785529117
42 3 2 7.64584753678 9.88622085535 103.156905998
43 3 2 6.64107477031 9.81184244884 103.398462516
44 3 2 5.67082403018 9.46453877136 103.505437597
45 3 2 4.82427184403 8.86755018731 103.485336906
46 3 2 4.17931994688 8.06687517297 103.357248721
47 3 2 3.79549474628 7.12707767834 103.150104097
48 3 2 3.70852164928 6.12540229566 102.900039866
49 3 2 3.92706878713 5.14473362128 102.647104873
50 3 2 4.43195693825 4.26604154622 102.431609622
51 3 2 5.17790766301 3.56100106706 102.290452085
52 3 2 6.09767031252 3.08545930151 102.253754552
53 3 2 7.10815174548 2.87434517296 102.34211806
54 3 2 8.11799004598 2.93848573242 102.564744668
55 4 1 86.1565942453 102.441194557 5.57214839589
56 4 1 84.0645713296 99.3355613419 9.63373349471
57 4 2 86.1033754403 102.988187781 5.64527677668
58 4 2 85.7788948286 103.955865142 5.82349818063
59 4 2 85.1914550404 104.776686816 6.05719945368
60 4 2 84.3976256759 105.377557019 6.34397454096
61 4 2 83.4727881932 105.705427953 6.67657985129
62 4 2 82.5042650906 105.732134976 7.04359449117
63 4 2 81.5833606937 105.456963729 7.43046124864
64 4 2 80.7970390103 104.906715254 7.82081344433
65 4 2 80.2199971936 104.133263144 8.19796671045
66 4 2 79.9078570964 103.208825407 8.54643972639
67 4 2 79.8920954877 102.21938199 8.85336529967
68 4 2 80.1771750295 101.256837932 9.10966317618
69 4 2 80.7401375169 100.410646467 9.31086768104
70 4 2 81.5326964573 99.7596556008 9.45753475295
71 4 2 82.485638255 99.3649213287 9.55519127185
72 4 2 83.5151308457 99.2641425403 9.61383129862
73 5 1 29.5894593188 80.3783007879 26.0539741903
74 5 1 32.8140168959 78.5076878402 21.9770848499
75 5 2 29.0454308002 80.3107660297 25.9711876248
76 5 2 28.0751573387 80.2847793441 25.6087733407
77 5 2 27.2423985086 80.3761969015 24.9991787441
78 5 2 26.6225149558 80.5594570796 24.1894812084
79 5 2 26.2714643141 80.8006270465 23.2449969549
80 5 2 26.2207008156 81.060495648 22.243327654
81 5 2 26.4743083221 81.2981473993 21.2672872404
82 5 2 27.0086280917 81.474691822 20.3973536442
83 5 2 27.7744152101 81.5568082075 19.7043334427
84 5 2 28.7013271328 81.5197827104 19.2429080301
85 5 2 29.7043352198 81.3497609494 19.0466495545
86 5 2 30.6914748695 81.0450107971 19.1249609066
87 5 2 31.5722278457 80.6160802591 19.4622186711
88 5 2 32.2657727732 80.0848360512 20.0191971593
89 5 2 32.70835179 79.4824705065 20.7366437257
90 5 2 32.8590819063 78.8466584782 21.5406794885
91 6 1 66.0025572166 80.1962659352 34.8154241719
92 6 1 61.078336177 78.7764575847 32.7528572125
93 6 2 66.2103129102 79.8426427903 35.1884789014
94 6 2 66.3864041862 79.2037262366 35.9848629238
95 6 2 66.2690653137 78.6301906236 36.839695364
96 6 2 65.8637476725 78.1573563185 37.6677022123
97 6 2 65.2021511377 77.8113650334 38.3860545401
98 6 2 64.3393347202 77.6067970784 38.9219181353
99 6 2 63.3486980856 77.5453424047 39.2190921459
100 6 2 62.3152913708 77.6156465709 39.2431316378
101 6 2 61.328063091 77.794345669 38.984487158
102 6 2 60.4717527204 78.0481958829 38.459375142
103 6 2 59.8191669158 78.3371035733 37.7082998293
104 6 2 59.4245433845 78.6177797053 36.7923614097
105 6 2 59.3186072618 78.8476855288 35.7876869045
106 6 2 59.5057705973 78.9889098715 34.7784913922
107 6 2 59.9637302085 79.0116246411 33.8494020289
108 6 2 60.6455005562 78.8968035762 33.0777445095
109 7 1 116.74490995 87.7785535806 53.7305929331
110 7 1 113.678570739 84.5842431581 57.0339148715
111 7 2 116.756618089 88.3151166465 53.8696777412
112 7 2 116.544505466 89.2941057818 54.1343256563
113 7 2 116.046618341 90.1629862015 54.4000421176
114 7 2 115.308777103 90.8416077747 54.6617921519
115 7 2 114.398673321 91.2671619556 54.9149023155
116 7 2 113.399699829 91.3999066152 55.1554866658
117 7 2 112.403349702 91.2267884294 55.3808009545
118 7 2 111.500876899 90.7626326552 55.5894927588
119 7 2 110.774978715 90.0487918478 55.7817247507
120 7 2 110.292258137 89.1493766859 55.9591598702
121 7 2 110.097153166 88.1454124545 56.1248097527
122 7 2 110.207886408 87.1274538069 56.2827602264
123 7 2 110.614804133 86.1873309501 56.4377989001
124 7 2 111.281256188 85.4097795668 56.5949787854
125 7 2 112.146936558 84.8647173842 56.759157728
126 7 2 113.133380101 84.6008713606 56.9345556284
127 8 1 50.0233897303 91.5281304762 108.988238103
128 8 1 46.6693704401 88.3918121384 112.059402857
129 8 2 50.0574159157 91.3808486999 108.4548228
130 8 2 50.161576521 90.8918318757 107.54737411
131 8 2 50.2946537116 90.1607929993 106.825347356
132 8 2 50.4263841715 89.2492820402 106.350747663
133 8 2 50.5266273356 88.2352985158 106.163027841
134 8 2 50.5681126218 87.206182044 106.275492367
135 8 2 50.5289250714 86.2506515704 106.674084717
136 8 2 50.3945028392 85.4507188735 107.318668579
137 8 2 50.1589644668 84.8742134104 108.146686173
138 8 2 49.8256449615 84.568599843 109.078860227
139 8 2 49.4067918197 84.5566517609 110.026419882
140 8 2 48.9224487001 84.8343759297 110.899191925
141 8 2 48.3986284977 85.3713762633 111.613819835
142 8 2 47.8649423384 86.1136243466 112.101361502
143 8 2 47.3519006034 86.9883839802 112.313573124
144 8 2 46.8881319899 87.9108408915 112.227306496
145 9 1 91.7435139229 54.1223887903 48.7629657552
146 9 1 95.6491869555 52.5238420998 45.1980873979
147 9 2 91.7584936371 54.6592382932 48.9006240545
148 9 2 92.0136018405 55.6178031307 49.1998284465
149 9 2 92.5464953262 56.4484471322 49.5152727153
150 9 2 93.3133478476 57.0836414221 49.801481443
151 9 2 94.2490084168 57.4736718433 50.0156439533
152 9 2 95.272939644 57.5911702703 50.1215163902
153 9 2 96.2965585045 57.4336091402 50.0927252481
154 9 2 97.2313104452 57.0235318338 49.9151712469
155 9 2 97.9967408951 56.4064979063 49.5883144436
156 9 2 98.5278284846 55.6469304559 49.1252234464
157 9 2 98.7809115695 54.8222441303 48.5513842461
158 9 2 98.7376678731 54.0157889888 47.9023772365
159 9 2 98.4067845127 53.3092533668 47.2206341559
160 9 2 97.8231661925 52.7752182027 46.5515705484
161 9 2 97.0447537324 52.4705414792 45.9394462576
162 9 2 96.1472429178 52.4311757701 45.423331261
163 10 1 62.2635202311 107.942515818 110.908105296
164 10 1 64.0837204893 104.415225531 114.750381354
165 10 2 61.7838930229 108.192832442 111.02927013
166 10 2 60.8149057112 108.441150353 111.299180885
167 10 2 59.8310965326 108.38778472 111.619683023
168 10 2 58.9240023606 108.040673101 111.980437369
169 10 2 58.1781677011 107.434527215 112.367435866
170 10 2 57.6634386861 106.627669063 112.764278374
171 10 2 57.4285967861 105.696715034 113.153667496
172 10 2 57.4969125091 104.729592523 113.518985194
173 10 2 57.8640243559 103.817525584 113.845807474
174 10 2 58.4983363593 103.046720106 114.123219096
175 10 2 59.3438979721 102.490506371 114.344808471
176 10 2 60.3255038096 102.202655198 114.509252058
177 10 2 61.3555484198 102.212476876 114.620435001
178 10 2 62.342011286 102.522149608 114.68709701
179 10 2 63.196844251 103.106520977 114.72203576
180 10 2 63.8439968712 103.915400518 114.740940414
181 11 1 14.191855454 102.353845553 100.363294715
182 11 1 11.196529684 97.7127543712 100.284002641
183 11 2 14.3449501896 102.524454558 100.868107708
184 11 2 14.4027142246 102.815514464 101.860779586
185 11 2 14.1632666916 103.033182369 102.845023242
186 11 2 13.6523002332 103.14095199 103.739869038
187 11 2 12.9202557164 103.112333979 104.472495714
188 11 2 12.0377246824 102.933270356 104.984867848
189 11 2 11.0890151162 102.603415857 105.239025633
190 11 2 10.164466999 102.136169403 105.220544807
191 11 2 9.35221806063 101.557452823 104.93985139
192 11 2 8.73017026092 100.903348153 104.43127138
193 11 2 8.35888923424 100.21680885 103.749902026
194 11 2 8.27608389382 99.5437447018 102.966589867
195 11 2 8.49316936517 98.9288372707 102.161473254
196 11 2 8.9942265278 98.4114672908 101.416677957
197 11 2 9.73745300056 98.0221252181 100.808831618
198 11 2 10.658973317 97.7796321068 100.402079349
199 12 1 7.12197963315 74.4851395267 65.8073276877
200 12 1 10.5174571646 70.1396393393 66.1319066701
201 12 2 6.90781807568 74.6508863223 66.2911090589
202 12 2 6.4524468597 74.7330979273 67.2181086915
203 12 2 5.97471550822 74.5118448092 68.1104482147
204 12 2 5.53305227401 74.004837918 68.8986915851
205 12 2 5.18259789735 73.2558338962 69.5228908454
206 12 2 4.97017967496 72.3306467782 69.9380502202
207 12 2 4.93004327699 71.3111492164 70.1182273614
208 12 2 5.08073134581 70.2878100083 70.0588979232
209 12 2 5.42339338364 69.3514481071 69.7773679443
210 12 2 5.94168097854 68.584954717 69.3111964488
211 12 2 6.60323791844 68.0557379815 68.7147720418
212 12 2 7.3626493734 67.809578911 68.0543555329
213 12 2 8.165581336 67.8664585665 67.4020404408
214 12 2 8.95373302082 68.2187368389 66.8291818617
215 12 2 9.6701508253 68.8318488249 66.399892643
216 12 2 10.2644194983 69.6474553252 66.1651996688
217 13 1 32.3693566616 54.3891214672 42.7010391754
218 13 1 35.6862420805 58.3079534607 44.7404062306
219 13 2 32.0666866317 54.5439302204 42.2630817677
220 13 2 31.4448279377 55.0158327349 41.5818697649
221 13 2 30.8104800077 55.6957997166 41.1250354201
222 13 2 30.23387529 56.5329450752 40.9246241948
223 13 2 29.7799830933 57.4620563313 40.9893092688
224 13 2 29.5025878082 58.4095385597 41.3036010024
225 13 2 29.4393866034 59.3001223703 41.8292587763
226 13 2 29.6085534298 60.0637245115 42.5087765214
227 13 2 30.007082513 60.6418357717 43.2706242436
228 13 2 30.6110623224 60.9928539372 44.0357677913
229 13 2 31.3778550424 61.0958757229 44.7248726073
230 13 2 32.249982896 60.952602051 45.2655348615
231 13 2 33.1603670902 60.5871830163 45.5988808665
232 13 2 34.038441869 60.0440166696 45.6849332572
233 13 2 34.8165863929 59.3837022543 45.5062548201
234 13 2 35.4362881984 58.6775167469 45.0695378493
235 14 1 31.2425770262 69.9248587627 94.0974969048
236 14 1 27.8264192677 73.0914233913 91.1275262511
237 14 2 31.1171360607 69.3848243084 94.1004869508
238 14 2 30.6681288237 68.4532117607 94.1632609364
239 14 2 29.9721873824 67.694577183 94.2798332274
240 14 2 29.0868834166 67.1753269081 94.4214879181
241 14 2 28.0870484938 66.9400480298 94.5572229087
242 14 2 27.0579533722 67.0074444076 94.6565756645
243 14 2 26.0875357989 67.3686318609 94.6923997943
244 14 2 25.2583852194 67.9879479373 94.6433393711
245 14 2 24.6402149702 68.8062024507 94.4957754682
246 14 2 24.2835080945 69.7460725081 94.2450674879
247 14 2 24.2149159481 70.7191502845 93.8959761393
248 14 2 24.4348289991 71.6340011603 93.4622295126
249 14 2 24.917341238 72.4044977422 92.9652718004
250 14 2 25.6126114411 72.957670145 92.4323087167
251 14 2 26.4514060651 73.2403570015 91.893827769
252 14 2 27.3514096993 73.2240509791 91.3808194032
253 15 1 30.5764507023 94.3094094807 49.6516391755
254 15 1 25.6537158799 91.9091446151 48.9281742453
255 15 2 30.6573176018 94.5297784771 50.1539136403
256 15 2 30.6003908892 95.0435536838 51.0518247704
257 15 2 30.2712303953 95.6373133609 51.8344823113
258 15 2 29.6912428658 96.2440351988 52.4418973986
259 15 2 28.9046972601 96.7955154215 52.8300540491
260 15 2 27.9746897542 97.2285853785 52.9749211002
261 15 2 26.9773926929 97.4908691987 52.8746425861
262 15 2 25.9951116842 97.5455577108 52.5497069038
263 15 2 25.1087836627 97.374763501 52.041079351
264 15 2 24.3905997051 96.9811513028 51.4064682482
265 15 2 23.8974250059 96.3876951141 50.71506498
266 15 2 23.6656157671 95.6355841782 50.0412373848
267 15 2 23.7077054274 94.7804686945 49.4577513257
268 15 2 24.0112622733 93.8873874518 49.0291382759
269 15 2 24.5400225557 93.0248397162 48.805813448
270 15 2 25.2371958346 92.2585417064 48.8194805818
271 16 1 93.070307137 59.8686129281 118.349872755
272 16 1 92.279789656 54.5996345449 119.809646701
273 16 2 92.7196652802 60.2302844589 118.581444732
274 16 2 91.9006854829 60.7558492696 118.937118364
275 16 2 90.9337716904 61.038442759 119.179334484
276 16 2 89.9052163811 61.0451462028 119.303749317
277 16 2 88.9069304929 60.7681875174 119.316756361
278 16 2 88.0280659869 60.2256496638 119.234903635
279 16 2 87.3468898843 59.4598224347 119.083385373
280 16 2 86.9236504368 58.5333478523 118.893745637
281 16 2 86.7950856595 57.5235105157 118.701003159
282 16 2 86.9710747585 56.5151933164 118.540459478
283 16 2 87.4337376686 55.5931405893 118.444481297
284 16 2 88.1390647726 54.8342338932 118.439550348
285 16 2 89.0209282606 54.3004844624 118.543849652
286 16 2 89.9971095034 54.0333810481 118.765606182
287 16 2 90.9767930602 54.0501083298 119.102341
288 16 2 91.8688442639 54.3419805778 119.541095205
289 17 1 59.2207307271 94.5833140581 18.3940333615
290 17 1 62.2825561025 94.9020703831 22.9811469242
291 17 2 58.7729705408 94.2588395774 18.4341421507
292 17 2 58.0902456332 93.4959878946 18.593497169
293 17 2 57.6568805724 92.5947653981 18.8645003924
294 17 2 57.5064411473 91.6410546196 19.2403377795
295 17 2 57.6467052313 90.7255222575 19.7046399351
296 17 2 58.05895385 89.9353551494 20.2329741369
297 17 2 58.6996773657 89.3463134252 20.7950713126
298 17 2 59.5045412641 89.0158251737 21.3575849851
299 17 2 60.3942500742 88.9777520255 21.8871307147
300 17 2 61.2817749378 89.2393027564 22.3533290018
301 17 2 62.0802860577 89.7803762262 22.7315742965
302 17 2 62.7110670014 90.5553935441 23.0052777294
303 17 2 63.1106894938 91.497452463 23.1673791422
304 17 2 63.2367947346 92.5244253403 23.2209906025
305 17 2 63.0719542903 93.546444853 23.1791127472
306 17 2 62.6252586486 94.474095164 23.0634498089
307 18 1 92.4987971933 66.2828170419 121.569753377
308 18 1 95.0068862324 67.2172170036 116.737116711
309 18 2 92.6244643921 66.6433980544 121.971711928
310 18 2 93.0808410533 67.2679971546 122.660947967
311 18 2 93.788455458 67.7926022259 123.206403176
312 18 2 94.6838038973 68.1859195569 123.548605836
313 18 2 95.6862712068 68.4286219627 123.646610157
314 18 2 96.7054786232 68.5151104063 123.481728373
315 18 2 97.6495215675 68.454024336 123.059234086
316 18 2 98.4333465012 68.2674542223 122.407881588
317 18 2 98.9865033294 67.9889280711 121.577284984
318 18 2 99.2595667383 67.6603554353 120.633396003
319 18 2 99.2286411808 67.3282074711 119.652492669
320 18 2 98.8975388917 67.0392812163 118.714226766
321 18 2 98.2974324122 66.8364341654 117.894363791
322 18 2 97.4840132969 66.7546779236 117.257877129
323 18 2 96.5324159767 66.8179869924 116.853025905
324 18 2 95.5303694568 67.0371135581 116.706956294
325 19 1 91.1890148294 79.0145889854 24.4233594482
326 19 1 86.4966405219 76.1027589703 24.567790686
327 19 2 91.1263660152 79.5618356254 24.4864294817
328 19 2 90.8478642963 80.558459847 24.4351755568
329 19 2 90.3707758409 81.4420485904 24.1800137465
330 19 2 89.7246059356 82.1328985645 23.7573545718
331 19 2 88.9542711893 82.5688741018 23.2188754908
332 19 2 88.1160055044 82.7110706585 22.6268106362
333 19 2 87.2722345067 82.5473608597 22.0482783412
334 19 2 86.4858856165 82.0934998772 21.5491634821
335 19 2 85.8146523825 81.3916893876 21.1881122482
336 19 2 85.3057358692 80.5067310024 21.0111866984
337 19 2 84.9915424055 79.5201197744 21.0476663276
338 19 2 84.886729835 78.5226161412 21.3073793191
339 19 2 84.9868714926 77.605973354 21.7798067317
340 19 2 85.2688596829 76.854574414 22.4350412735
341 19 2 85.6930118851 76.3377407876 23.2265132712
342 19 2 86.2066877088 76.1034139394 24.0952353715
343 20 1 80.7304769585 85.0006985314 76.085343534
344 20 1 76.334473779 81.6810436615 75.6693643856
345 20 2 80.6190310549 85.5152041218 76.2592555696
346 20 2 80.2478915919 86.4699587437 76.4146554473
347 20 2 79.6840182337 87.3366639986 76.3489375021
348 20 2 78.9651744188 88.0331234194 76.0812476515
349 20 2 78.1432487288 88.4926579923 75.6491410124
350 20 2 77.2795253824 88.6701837697 75.1051588523
351 20 2 76.4390983433 88.5463211521 74.5120395935
352 20 2 75.6849381789 88.1291612869 73.9370003736
353 20 2 75.0721524614 87.4535285814 73.445610383
354 20 2 74.6429628603 86.5778065516 73.0958144083
355 20 2 74.4228567495 85.5786163206 72.9326513199
356 20 2 74.418264102 84.5438328079 72.9841488998
357 20 2 74.6159714142 83.5645751658 73.2587691835
358 20 2 74.9843260821 82.7269015116 73.7446371686
359 20 2 75.4761214513 82.1039649607 74.4106231891
360 20 2 76.0328995774 81.7493459154 75.2091803017
361 21 1 9.39358389537 82.725313174 24.5941802647
362 21 1 5.30770663043 84.8702795545 21.5572875659
363 21 2 9.4823780977 82.9792333886 25.0789706342
364 21 2 9.65094603197 83.6479413854 25.852187601
365 21 2 9.7942862842 84.5180516687 26.3960733225
366 21 2 9.88141681358 85.5143711426 26.6666390041
367 21 2 9.88647894529 86.5502030806 26.6448082421
368 21 2 9.79109431963 87.5352493009 26.338155787
369 21 2 9.58604003035 88.3838406041 25.7802171258
370 21 2 9.27208926792 89.0227452918 25.027431811
371 21 2 8.85994084528 89.3978440399 24.1539991473
372 21 2 8.36924402965 89.4790627311 23.2451151225
373 21 2 7.82680756431 89.2631136293 22.3892070214
374 21 2 7.26415612335 88.7737950488 21.6698735146
375 21 2 6.71465692184 88.0598222012 21.1582648638
376 21 2 6.21047838337 87.1903869339 20.9065977653
377 21 2 5.77965807424 86.2488510785 20.9433959374
378 21 2 5.44354715421 85.3251482425 21.2708902601
379 22 1 92.7813109186 48.0577792133 111.145212114
380 22 1 92.8834988454 47.8506957757 116.664692627
381 22 2 92.4116812019 48.4114698362 110.931533842
382 22 2 91.5719593226 48.9625944628 110.677410205
383 22 2 90.6075443761 49.3395733618 110.642186184
384 22 2 89.6074374733 49.5227474613 110.84139322
385 22 2 88.6638929518 49.5101224789 111.269194993
386 22 2 87.8640096392 49.317550695 111.898919382
387 22 2 87.281792028 48.9772860602 112.685489559
388 22 2 86.9714049636 48.5350443335 113.569532621
389 22 2 86.9622366638 48.0458362136 114.482791275
390 22 2 87.2562200608 47.56895326 115.354345302
391 22 2 87.8276566203 47.1625636266 116.11707575
392 22 2 88.6255586934 46.8784101893 116.713782643
393 22 2 89.5782969053 46.7570943216 117.102398612
394 22 2 90.6001289806 46.8243751878 117.259823216
395 22 2 91.5990149233 47.0888218637 117.184028491
396 22 2 92.4850062158 47.5410322889 116.894243792
397 23 1 57.3256272044 111.869596127 65.1813911844
398 23 1 62.0262662698 109.626097738 67.0222329531
399 23 2 57.3020198315 112.422519811 65.2145525962
400 23 2 57.3251429459 113.418557181 65.4988497845
401 23 2 57.4487031279 114.290573009 66.0445340226
402 23 2 57.6794323457 114.964036681 66.7973027266
403 23 2 58.0142943962 115.38251508 67.6839781169
404 23 2 58.4407616471 115.512816315 68.6191771776
405 23 2 58.9379568968 115.348015075 69.5130940898
406 23 2 59.4785562758 114.908083848 70.2796857921
407 23 2 60.031279744 114.238072487 70.8445145757
408 23 2 60.5637421831 113.404002033 71.1515328826
409 23 2 61.0454052135 112.486847077 71.1681918906
410 23 2 61.4503606859 111.575155138 70.8884082517
411 23 2 61.7596921398 110.756975796 70.3331185725
412 23 2 61.9631989884 110.111835209 69.5483710993
413 23 2 62.060326275 109.703487514 68.6011285425
414 23 2 62.0602152555 109.574103809 67.5731646056
415 24 1 98.4258792895 87.9770769357 94.900851593
416 24 1 94.9847954809 84.3298478561 97.2191814498
417 24 2 98.4076788286 88.4865582159 95.1187487164
418 24 2 98.1418415293 89.4151000174 95.4937029326
419 24 2 97.5950766809 90.2353648359 95.8125506067
420 24 2 96.8149643788 90.8687556885 96.064921039
421 24 2 95.870353715 91.2537086549 96.2465027528
422 24 2 94.8450873677 91.3513042639 96.3594364738
423 24 2 93.8303595649 91.1488148998 96.4121200088
424 24 2 92.9164039746 90.6608648898 96.4184428081
425 24 2 92.1842691468 89.9280975361 96.3965199789
426 24 2 91.698431155 89.0134705875 96.3670411423
427 24 2 91.5009167746 87.9965178087 96.351384629
428 24 2 91.6074728541 86.9660996904 96.3696689019
429 24 2 92.0061310326 86.0123040531 96.4389188121
430 24 2 92.6582986234 85.2182347827 96.571513829
431 24 2 93.5022762345 84.6524371339 96.7740596849
432 24 2 94.4588815033 84.362650013 97.0467862798
433 25 1 101.090093441 6.23569059758 107.285063001
434 25 1 95.9524065263 7.68578199774 108.70611865
435 25 2 101.212153335 5.70069785667 107.364219413
436 25 2 101.353487938 4.74062148612 107.727162802
437 25 2 101.357177631 3.90183230966 108.335331459
438 25 2 101.206422437 3.25224480612 109.128274684
439 25 2 100.898499621 2.84252822751 110.02870007
440 25 2 100.445011856 2.70148823214 110.949518498
441 25 2 99.8708296705 2.8334413259 111.801782079
442 25 2 99.2118245677 3.21782142423 112.502791512
443 25 2 98.5115994321 3.81105439578 112.98363391
444 25 2 97.8175142446 4.55052972804 113.195464023
445 25 2 97.1763693459 5.36030730817 113.11395635
446 25 2 96.6301397112 6.15803916136 112.741522345
447 25 2 96.2121490428 6.86247524859 112.107090622
448 25 2 95.944032404 7.40086919057 111.263470185
449 25 2 95.8337642411 7.71560890575 110.282537029
450 25 2 95.8749315335 7.76946779758 109.24868284
451 26 1 9.03731316507 10.4854487332 97.4263400944
452 26 1 9.24625079134 15.2948543861 94.7163671433
453 26 2 9.51978326147 10.214187185 97.4582989212
454 26 2 10.426950506 9.7443583216 97.2857925716
455 26 2 11.2789722614 9.37246783176 96.8284017069
456 26 2 12.0106132952 9.14684331263 96.1303723485
457 26 2 12.5676107561 9.10248060906 95.2578840733
458 26 2 12.9116200876 9.25785403588 94.2930179224
459 26 2 13.0237100319 9.61323249347 93.3262749331
460 26 2 12.9060881638 10.1506549582 92.4483272116
461 26 2 12.5818996753 10.8355675819 91.7417534128
462 26 2 12.0931177542 11.6199731824 91.2735119167
463 26 2 11.4967178395 12.4468060587 91.0888377506
464 26 2 10.8594844628 13.2551333771 91.207119538
465 26 2 10.2519240167 13.9857090359 91.6201322765
466 26 2 9.74183828516 14.5863737894 92.2927870257
467 26 2 9.3881444928 15.0168094238 93.1663291695
468 26 2 9.23550515681 15.2522136544 94.163693743
469 27 1 101.336055267 106.322322186 57.6356553114
470 27 1 106.286284697 105.313040846 55.4008016638
471 27 2 101.18102158 106.854586683 57.6292796256
472 27 2 101.104185743 107.884569828 57.7110169204
473 27 2 101.314911707 108.88250901 57.893121204
474 27 2 101.800601215 109.763225988 58.1419048786
475 27 2 102.523593821 110.452227015 58.4176026982
476 27 2 103.424599533 110.89249274 58.6779962645
477 27 2 104.428102942 111.049675369 58.8822621206
478 27 2 105.449246248 110.915229376 58.9946927009
479 27 2 106.40156382 110.507190405 58.9879509794
480 27 2 107.20486331 109.868531367 58.8455621668
481 27 2 107.79253497 109.063245578 58.563415344
482 27 2 108.117622951 108.170513936 58.1501381606
483 27 2 108.157105206 107.277487794 57.6263104483
484 27 2 107.913991886 106.471345349 57.022588424
485 27 2 107.417050973 105.83134558 56.3769104574
486 27 2 106.718186156 105.421604007 55.7310390906
487 28 1 67.6367524551 60.383802708 51.6725936358
488 28 1 67.2702557416 62.4142703345 46.5480573214
489 28 2 67.885219556 59.889654013 51.7108396169
490 28 2 68.1986149301 58.9070903208 51.6118348618
491 28 2 68.3031218003 57.9281919739 51.2889008876
492 28 2 68.2032249455 57.0438439307 50.7584301835
493 28 2 67.9220399979 56.3363131419 50.0557316568
494 28 2 67.4992065145 55.8717501385 49.2318123207
495 28 2 66.9872749382 55.6941595868 48.3487281411
496 28 2 66.4469167647 55.8213893814 47.4739278011
497 28 2 65.9413944978 56.2435038571 46.6741049343
498 28 2 65.5307954421 56.923689398 46.0091191776
499 28 2 65.2665549046 57.8016099004 45.5265401261
500 28 2 65.186768005 58.7989062475 45.2573114909
501 28 2 65.3127174068 59.8263385331 45.2129306632
502 28 2 65.6469334593 60.7919200409 45.3844007573
503 28 2 66.1729635634 61.6093015877 45.7430506529
504 28 2 66.856871782 62.2056420206 46.2431482913
505 29 1 118.943982567 91.4298750939 81.4325112935
506 29 1 119.362242347 96.1205737702 84.3204856261
507 29 2 119.361584186 91.0725817988 81.5055316801
508 29 2 120.275535717 90.5932063209 81.5968649273
509 29 2 121.292210385 90.3979842472 81.6382288162
510 29 2 122.322544579 90.5067069282 81.6446192797
511 29 2 123.276229658 90.911461962 81.6342199847
512 29 2 124.06994334 91.5773543895 81.6267449399
513 29 2 124.634944313 92.4456872757 81.6416416163
514 29 2 124.923337813 93.439311779 81.6963183624
515 29 2 124.912441111 94.4696590619 81.8045576796
516 29 2 124.606850977 95.4448131034 81.9752599842
517 29 2 124.038024703 96.2778885993 82.2116323579
518 29 2 123.261412849 96.8949503248 82.5108962314
519 29 2 122.351405076 97.241752133 82.8645406432
520 29 2 121.394549726 97.2886813463 83.2590979911
521 29 2 120.481665175 97.0334578723 83.6773715679
522 29 2 119.699561974 96.5013420287 84.1000029959
523 30 1 19.4875226208 18.3143905793 10.7967546078
524 30 1 16.896031184 14.3362460781 13.6210296514
525 30 2 19.3843368532 18.8302406285 10.9717774981
526 30 2 18.9669462819 19.7259759519 11.2830544689
527 30 2 18.2915521108 20.4593453508 11.5649446065
528 30 2 17.4190582233 20.9610993318 11.8108050753
529 30 2 16.4283336154 21.1830995281 12.0172770475
530 30 2 15.4090236971 21.1027063825 12.1845918518
531 30 2 14.4533793531 20.7248426828 12.3165498879
532 30 2 13.647848521 20.0815448627 12.4201742305
533 30 2 13.0651966933 19.2290429664 12.5050704947
534 30 2 12.7578745367 18.2426354306 12.5825513098
535 30 2 12.7532371545 17.2098258333 12.6646052037
536 30 2 13.0510507415 16.2223471761 12.7628038802
537 30 2 13.6235138954 15.3678006667 12.8872474893
538 30 2 14.4177916397 14.7216711028 13.0456440258
539 30 2 15.360831191 14.3404466346 13.2426067655
540 30 2 16.3660205246 14.2564700209 13.4792337782
541 31 1 14.6769002808 45.1532659017 81.8556442181
542 31 1 13.9070107615 45.215193022 87.3256923186
543 31 2 15.2066461847 45.1245685862 81.6946245625
544 31 2 16.2238774971 45.2503532303 81.5434005844
545 31 2 17.2010344832 45.5883989075 81.6092743703
546 31 2 18.0564574695 46.0959198911 81.8993157069
547 31 2 18.7195825109 46.7146832331 82.4001621077
548 31 2 19.1373731063 47.3763165418 83.0792367681
549 31 2 19.2791543335 48.0085399427 83.8877178539
550 31 2 19.1394087865 48.5417541958 84.7649884813
551 31 2 18.7382794722 48.9153844802 85.6441617833
552 31 2 18.1197338296 49.0834016273 86.4581774695
553 31 2 17.3475562146 49.0185175564 87.145914192
554 31 2 16.499534127 48.7146725103 87.6577605928
555 31 2 15.6603680873 48.1875873861 87.9601372466
556 31 2 14.9139514111 47.4733308171 88.0385573358
557 31 2 14.3357235574 46.6250316139 87.8989470851
558 31 2 13.9857940235 45.7080362145 87.5671056017
559 32 1 88.0892674488 33.2321612388 32.0419655804
560 32 1 86.0925527555 38.0798396154 33.7829813335
561 32 2 88.5188708632 33.2681215004 31.6933549754
562 32 2 89.1816666056 33.4856580255 30.9273068859
563 32 2 89.6180850892 33.8929977933 30.080511024
564 32 2 89.7981268314 34.4678146242 29.2375278728
565 32 2 89.715160404 35.1725172517 28.4825703972
566 32 2 89.3865268708 35.9576756662 27.8918282571
567 32 2 88.8519591955 36.7665265283 27.5265233234
568 32 2 88.1699606885 37.5401469952 27.4273294682
569 32 2 87.4124725864 38.2228253803 27.61066525
570 32 2 86.6583168008 38.767139125 28.067197406
571 32 2 85.9860115113 39.1382772376 28.7626915543
572 32 2 85.4666144438 39.3172132227 29.6411325658
573 32 2 85.1572461483 39.3024392947 30.629830194
574 32 2 85.0958836136 39.1101038092 31.6460445963
575 32 2 85.2978987663 38.772539383 32.6045278499
576 32 2 85.7546573607 38.3353158628 33.4252940718
577 33 1 74.5690690827 73.7658164802 11.4445822625
578 33 1 69.6241337091 72.0780969547 13.2382399824
579 33 2 74.6850339709 74.2984047455 11.5459897202
580 33 2 74.6905269081 75.330314314 11.6386314019
581 33 2 74.4154719486 76.3288838277 11.6130637129
582 33 2 73.8772963872 77.2054939312 11.4890806383
583 33 2 73.1174102586 77.8826415434 11.2954464623
584 33 2 72.197431923 78.3010040561 11.0672739812
585 33 2 71.1935717174 78.4248464314 10.8428240652
586 33 2 70.189685587 78.2452783545 10.6600182828
587 33 2 69.26963184 77.7810645627 10.5529824508
588 33 2 68.509627687 77.0769144892 10.5489361579
589 33 2 67.9713022457 76.1994071179 10.6657117713
590 33 2 67.696079212 75.2309224873 10.9101290645
591 33 2 67.7014012004 74.2621329698 11.2773736129
592 33 2 67.9791398963 73.3837387274 11.7514356161
593 33 2 68.4963369306 72.6782006343 12.3065691479
594 33 2 69.1982079466 72.212224189 12.9096388293