LAMMPS input file for bananas

648 atoms

2 atom types

0 67.4746132241 xlo xhi
0 67.4746132241 ylo yhi
0 67.4746132241 zlo zhi

Masses

 1 1
 2 1

Atoms

1 1 1 14.2683346019 7.98971434306 7.86767867818
2 1 1 9.98734978017 4.91303791938 6.27272850118
3 1 2 14.7427632143 7.71260330585 7.94189266911
4 1 2 15.4942303786 7.05232842823 8.21028130159
5 1 2 16.0102223929 6.24972898686 8.61312699039
6 1 2 16.2431088917 5.36540938657 9.09937897678
7 1 2 16.1710626365 4.46742226438 9.61038458984
8 1 2 15.8000489183 3.62506595823 10.0852350353
9 1 2 15.163281863 2.9025684386 10.4663168144
10 1 2 14.3181971908 2.35323336933 10.7045627998
11 1 2 13.3412173445 2.01458184412 10.763924367
12 1 2 12.320786108 1.90493259613 10.62465698
13 1 2 11.3493075613 2.02173237099 10.2851197702
14 1 2 10.5147240822 2.34178863846 9.76192509018
15 1 2 9.89250100194 2.82338343254 9.08842441179
16 1 2 9.53874845724 3.41007565808 8.3116685681
17 1 2 9.48510733616 4.03584530959 7.4881193926
18 1 2 9.73586542813 4.63111074211 6.67850361012
19 2 1 51.3429344297 66.3230620244 5.71266471696
20 2 1 49.789979147 62.285116217 9.12147073571
21 2 2 50.9430871733 66.6814547657 5.57461557279
22 2 2 50.0750125647 67.1554499324 5.26725043695
23 2 2 49.1116956969 67.3395155262 4.93432591002
24 2 2 48.1314370819 67.2185465512 4.62262440886
25 2 2 47.2140813554 66.8052398215 4.37699401704
26 2 2 46.4337399863 66.1389367331 4.23626088952
27 2 2 45.8520365242 65.2820375655 4.22969051478
28 2 2 45.5124900352 64.3143141242 4.37432036625
29 2 2 45.4365486378 63.3256390871 4.67340705336
30 2 2 45.6216346535 62.4077947269 5.11612950395
31 2 2 46.0413795447 61.6461075853 5.67857523081
32 2 2 46.6480272265 61.1116715444 6.32591979092
33 2 2 47.3767867055 60.8548681064 7.0156007947
34 2 2 48.1517373358 60.9007744652 7.70119717598
35 2 2 48.8927484642 61.2468778924 8.33666015392
36 2 2 49.5227827908 61.8633047546 8.88051026371
37 3 1 18.9675776106 31.6427908161 40.399960706
38 3 1 18.5960581833 32.7997410839 45.7721180305
39 3 2 19.2815847264 31.9918501438 40.1051084232
40 3 2 19.7377560329 32.8084637586 39.6604195272
41 3 2 20.0003702638 33.7756615601 39.399152519
42 3 2 20.0597489168 34.8088207874 39.3572662708
43 3 2 19.9247370189 35.8173067478 39.5507246028
44 3 2 19.6218969634 36.7127335478 39.9740412899
45 3 2 19.1930875291 37.4170198613 40.6007800942
46 3 2 18.6916487405 37.869505507 41.3859642464
47 3 2 18.1775402894 38.0324802079 42.27017577
48 3 2 17.7118766206 37.8946206251 43.1849710225
49 3 2 17.3513567692 37.4720224018 44.0591188644
50 3 2 17.1430966321 36.8067331561 44.8250928888
51 3 2 17.1203346772 35.9629201291 45.4252259906
52 3 2 17.299402485 35.0210217804 45.816966328
53 3 2 17.6782362368 34.0704163742 45.9767556307
54 3 2 18.2365648176 33.2012757632 45.9021763749
55 4 1 45.4500617377 64.3592429968 43.6866584644
56 4 1 43.6438092611 61.0017137934 47.661716271
57 4 2 45.3188678666 64.8938899302 43.7523971627
58 4 2 44.856943017 65.8076689531 43.9083830652
59 4 2 44.1528577981 66.5398056327 44.1107148667
60 4 2 43.2727743674 67.0257233379 44.359783953
61 4 2 42.2988959126 67.223286609 44.6517219266
62 4 2 41.3219743952 67.1166415158 44.978753185
63 4 2 40.4330391305 66.7176606352 45.3299036132
64 4 2 39.7151000905 66.0648609463 45.6920007993
65 4 2 39.2355821135 65.2198932729 46.0508746096
66 4 2 39.0401795925 64.2619232328 46.3926486988
67 4 2 39.1486917448 63.2804158347 46.7050052442
68 4 2 39.5532180487 62.3669813563 46.9783076302
69 4 2 40.2188783222 61.6070256953 47.2064787603
70 4 2 41.0869918123 61.0719662073 47.3875549425
71 4 2 42.0804255433 60.812722504 47.5238648665
72 4 2 43.110624459 60.855075479 47.6218173593
73 5 1 46.1175931432 10.4716591577 2.92352855894
74 5 1 40.7351701533 11.4195364828 2.23965264752
75 5 2 46.2970298636 10.5003608084 3.44732186765
76 5 2 46.5182506017 10.7597754518 4.4253114887
77 5 2 46.5618169495 11.2582639463 5.33212429478
78 5 2 46.4092560304 11.9424344208 6.09457704667
79 5 2 46.0599706241 12.7419713649 6.65264393431
80 5 2 45.531293598 13.5760444052 6.96492751792
81 5 2 44.856908136 14.3606754401 7.01243182071
82 5 2 44.083777747 15.0163926679 6.80029368203
83 5 2 43.2678658628 15.4754738964 6.35731456961
84 5 2 42.4690351554 15.6881189565 5.73333552328
85 5 2 41.7455914643 15.6269886466 4.99469448587
86 5 2 41.1489696197 15.2896965127 4.21818005458
87 5 2 40.7190455097 14.6990263578 3.48403272679
88 5 2 40.480501667 13.9008556544 2.86863152888
89 5 2 40.440577625 12.9599741272 2.43753259162
90 5 2 40.588410084 11.9541786141 2.23949415831
91 6 1 36.6518772423 35.4292037195 21.9597413709
92 6 1 34.8131792783 30.7632486744 24.2367324208
93 6 2 36.5143194576 35.8932767729 22.2301018868
94 6 2 36.0408374603 36.6684942079 22.7276468574
95 6 2 35.3262697526 37.2580200879 23.1908428193
96 6 2 34.4373993109 37.6026133076 23.5956429203
97 6 2 33.4568956105 37.6653566945 23.9233226909
98 6 2 32.4757798702 37.4350217559 24.1621866507
99 6 2 31.5851290919 36.9270920791 24.3086342716
100 6 2 30.8677750165 36.1823521086 24.3674881412
101 6 2 30.3907545786 35.2631699236 24.3515544169
102 6 2 30.1991999494 34.247812815 24.2804556326
103 6 2 30.3122250489 33.2233137587 24.1788422393
104 6 2 30.7211834431 32.2775389566 24.0741458851
105 6 2 31.390456407 31.4911794343 23.9940792092
106 6 2 32.2606993274 30.9303966078 23.9641100243
107 6 2 33.2542505575 30.6407921238 24.0051401003
108 6 2 34.2822097434 30.6432515823 24.1316001111
109 7 1 62.3697213038 17.5577219567 11.6547951398
110 7 1 57.4105293182 15.1617654899 11.7042156523
111 7 2 62.5363057447 17.7642127248 12.1416133178
112 7 2 62.6353036375 18.2515271768 13.05014087
113 7 2 62.4460420191 18.8201786145 13.8948383622
114 7 2 61.979353984 19.4051428169 14.6108812595
115 7 2 61.2713581428 19.9399087665 15.1451710115
116 7 2 60.3801666581 20.3625406721 15.4611746208
117 7 2 59.3805887194 20.6213229919 15.5422543753
118 7 2 58.3573121985 20.6794739506 15.3931842615
119 7 2 57.3971849302 20.5184979456 15.0397148488
120 7 2 56.5812991283 20.1398712951 14.5262263009
121 7 2 55.9776003854 19.5649076812 13.9116834289
122 7 2 55.6346948989 18.8328155539 13.2642614525
123 7 2 55.5774193485 17.9971245503 12.6551322964
124 7 2 55.8045772038 17.1208066344 12.1519777572
125 7 2 56.2890477795 16.2705366352 11.8128207719
126 7 2 56.9802581 15.5106152921 11.6807370248
127 8 1 32.5641430708 46.1311152228 0.49473117316
128 8 1 30.5168463444 42.3601980986 3.94804770712
129 8 2 32.4945487439 46.6578494244 0.653124551207
130 8 2 32.1407305877 47.5754189212 0.978051007356
131 8 2 31.5277029215 48.3322298812 1.33037546339
132 8 2 30.7141048454 48.8580512869 1.69680184201
133 8 2 29.7768560774 49.1037052351 2.06274877235
134 8 2 28.8041462485 49.0455491654 2.41367858198
135 8 2 27.8873970219 48.6876307176 2.73642230606
136 8 2 27.1129296358 48.0613188173 3.02037994818
137 8 2 26.5540973142 47.2224446128 3.25848659742
138 8 2 26.2645996232 46.2462128492 3.44785634646
139 8 2 26.2735881241 45.2203474716 3.59004532231
140 8 2 26.583009408 44.2370961883 3.69090985599
141 8 2 27.1674276779 43.3848227255 3.76007271807
142 8 2 27.9763430468 42.7399530788 3.81004606916
143 8 2 28.9387942563 42.360009808 3.85509106222
144 8 2 29.9698263088 42.2783692501 3.90991803625
145 9 1 44.6247350947 52.586323693 51.6431929272
146 9 1 41.9483651083 55.2942582061 55.6232393208
147 9 2 44.9344537358 52.9032489129 51.3100060127
148 9 2 45.3165100592 53.6235906684 50.671383282
149 9 2 45.4193575406 54.4629785546 50.0734295688
150 9 2 45.2408076285 55.3575518096 49.5829635747
151 9 2 44.8043192148 56.2384199035 49.2570072328
152 9 2 44.1568605172 57.037941438 49.1375885491
153 9 2 43.3646282484 57.6958891956 49.2479110384
154 9 2 42.5070142396 58.1649394383 49.5902388824
155 9 2 41.6693694192 58.4149851413 50.1456905656
156 9 2 40.9352246611 58.4358800421 50.8759597956
157 9 2 40.378677518 58.2383634028 51.7268068593
158 9 2 40.0576387378 57.8530811999 52.6330022007
159 9 2 40.0085540957 57.3277929535 53.5242716478
160 9 2 40.2430826117 56.723018775 54.3317014213
161 9 2 40.7470339109 56.1065233733 54.9940191538
162 9 2 41.4816615792 55.5471397665 55.4631784451
163 10 1 22.082822751 4.25167471733 60.7946646636
164 10 1 19.1808896396 0.99066731738 64.1534218567
165 10 2 22.0527542953 4.79343144916 60.9085781533
166 10 2 21.7648403977 5.76500606185 61.1226964165
167 10 2 21.1998802194 6.60608724546 61.3374071768
168 10 2 20.4094423233 7.23994072888 61.5522000189
169 10 2 19.4656460202 7.60871962506 61.7665570461
170 10 2 18.4545881884 7.67873677822 61.9800000833
171 10 2 17.4684961333 7.4435351171 62.1921342594
172 10 2 16.5973217011 6.92447617275 62.402683997
173 10 2 15.9205427843 6.16879312144 62.6115181293
174 10 2 15.4999194571 5.24528580447 62.8186618553
175 10 2 15.373864968 4.23805009432 63.0242944428
176 10 2 15.5539446354 3.23881313247 63.2287328897
177 10 2 16.0238217482 2.33857302933 63.4324030315
178 10 2 16.7407465451 1.61930501037 63.6358007293
179 10 2 17.6394525623 1.14648993635 63.839446676
180 10 2 18.6381052238 0.963146171807 64.043838938
181 11 1 48.2708236288 27.1001162991 28.3902074941
182 11 1 50.0675452099 27.0698111574 33.5966946097
183 11 2 48.5643207766 27.4159857368 28.0416868001
184 11 2 49.0834676791 28.1698138288 27.5569931108
185 11 2 49.5382016542 29.0727317351 27.3319274819
186 11 2 49.9048653658 30.0394313751 27.3931467581
187 11 2 50.1678284782 30.9787914002 27.7412148775
188 11 2 50.3209122545 31.8021822805 28.3505514732
189 11 2 50.3679527058 32.4315442784 29.1717633475
190 11 2 50.3224509653 32.8065020587 30.1361463242
191 11 2 50.2063427525 32.8898674865 31.1619471623
192 11 2 50.0479990828 32.6710290704 32.1618148041
193 11 2 49.8796404439 32.1669191276 33.0507618247
194 11 2 49.7344001193 31.4204705192 33.7539104535
195 11 2 49.6433043166 30.496703614 34.2133171694
196 11 2 49.6324443415 29.4768001279 34.3932538557
197 11 2 49.7205985541 28.450703967 34.2834641725
198 11 2 49.9175208501 27.5089234574 33.9000983524
199 12 1 19.8260081467 9.11088452732 61.2147779275
200 12 1 24.7439579421 7.16069643714 59.6827299027
201 12 2 19.5437704418 8.78803910369 61.5661942931
202 12 2 19.0653959672 8.01691857465 62.065422961
203 12 2 18.7004868175 7.08452556176 62.3303434265
204 12 2 18.496235648 6.06930831245 62.3480540884
205 12 2 18.4851922407 5.05726393547 62.1281848243
206 12 2 18.6822968147 4.134100354 61.7020192933
207 12 2 19.0835183278 3.37742461608 61.1196436447
208 12 2 19.6662218781 2.84966954429 60.4453815089
209 12 2 20.3912317203 2.59240341196 59.7519313398
210 12 2 21.2064018663 2.62254128014 59.113740449
211 12 2 22.0513688344 2.93080330565 58.6002196437
212 12 2 22.863053367 3.48256053525 58.2694169075
213 12 2 23.5814096721 4.22099109728 58.1627267248
214 12 2 24.1548981859 5.07225912567 58.3011172573
215 12 2 24.5451830505 5.95224439292 58.6832192397
216 12 2 24.7306261646 6.77420929208 59.2854507791
217 13 1 62.9749608214 29.0208397258 59.4766818198
218 13 1 61.9225379806 26.0302893406 63.9806411319
219 13 2 63.0498035856 29.5628527911 59.5661309636
220 13 2 62.9880172752 30.556138616 59.8529479662
221 13 2 62.6782013656 31.4446561893 60.2856706201
222 13 2 62.1582949578 32.1473021739 60.8412641933
223 13 2 61.4853854617 32.5999141536 61.4854951122
224 13 2 60.7305054693 32.7611185975 62.1760511168
225 13 2 59.9721586217 32.6161017737 62.8663977331
226 13 2 59.2891645397 32.1779599194 63.5100195713
227 13 2 58.7534749565 31.4865056085 64.0646598849
228 13 2 58.42361581 30.6046391088 64.4961719834
229 13 2 58.339353005 29.6126154533 64.7816314687
230 13 2 58.5180680235 28.6007297448 64.9114256371
231 13 2 58.9531737222 27.6610873759 64.8901296115
232 13 2 59.6147147048 26.8792092542 64.7360893497
233 13 2 60.4520975515 26.3262371577 64.479749537
234 13 2 61.3987020622 26.0524496498 64.1608787609
235 14 1 32.1867501329 13.5404630689 65.4004977399
236 14 1 34.5937439758 10.0443739859 61.8904583254
237 14 2 32.4993946308 13.6933405963 65.8320792863
238 14 2 33.1171019754 13.7472697591 66.6616740988
239 14 2 33.7433159352 13.498133428 67.4481125491
240 14 2 34.3381396503 12.9702732459 68.1116233985
241 14 2 34.8645372662 12.2134346236 68.583639416
242 14 2 35.2917094986 11.2982327869 68.8130468118
243 14 2 35.5979007762 10.3097166831 68.7708439086
244 14 2 35.7723821126 9.33961735194 68.4527844456
245 14 2 35.8164289793 8.47798727076 67.8797645961
246 14 2 35.7432050556 7.80499268845 67.0959184248
247 14 2 35.5765624492 7.38360702144 66.16459537
248 14 2 35.3488677402 7.25387125862 65.1625863768
249 14 2 35.0980519896 7.42924449968 64.173124929
250 14 2 34.8641535823 7.89537725047 63.2783008878
251 14 2 34.6856690038 8.611419281 62.5515785633
252 14 2 34.5960441489 9.51374284384 62.0511009471
253 15 1 43.0276680043 13.454202939 7.86091315057
254 15 1 38.7347960527 10.4694116033 9.59264812353
255 15 2 43.0274369455 13.9839315909 8.0245232164
256 15 2 42.8068461109 14.9710567674 8.24728281947
257 15 2 42.3130782992 15.874514469 8.35978082204
258 15 2 41.5844151093 16.6104852829 8.36953724857
259 15 2 40.6805472433 17.1104150776 8.29343631381
260 15 2 39.6771341084 17.3272632424 8.1561875423
261 15 2 38.6589079806 17.2397901161 7.98807366468
262 15 2 37.7119512384 16.854492837 7.82219055442
263 15 2 36.9158505448 16.2050131726 7.6914307658
264 15 2 36.3364430679 15.3490713041 7.62548560317
265 15 2 36.019815875 14.3632050266 7.64813896208
266 15 2 35.9881054121 13.3357938545 7.7750995903
267 15 2 36.2374799187 12.3590038345 8.01256934313
268 15 2 36.7384886663 11.5203872425 8.35667792683
269 15 2 37.4387461909 10.8949027934 8.79383564935
270 15 2 38.2677068682 10.5380836689 9.30197202759
271 16 1 34.7064883522 57.3357904525 4.81507254678
272 16 1 34.7926163571 55.6184423768 10.0476562758
273 16 2 34.4374527304 57.8127104759 4.72819402761
274 16 2 33.7639957456 58.5985883277 4.68882446185
275 16 2 32.9273543569 59.1937465829 4.82489837287
276 16 2 32.0086687773 59.5539732848 5.13946442311
277 16 2 31.0965569848 59.6564688775 5.61930294029
278 16 2 30.279037802 59.5019242283 6.23613079989
279 16 2 29.6355085839 59.1144576603 6.94917923803
280 16 2 29.2295086926 58.5394167328 7.70890964482
281 16 2 29.102928321 57.8392451216 8.46152866897
282 16 2 29.2721904883 57.0877913067 9.15389111296
283 16 2 29.7267541947 56.3635777892 9.73834375342
284 16 2 30.4300751612 55.7426443039 10.1770686057
285 16 2 31.3229365899 55.2916173188 10.4455297741
286 16 2 32.3288463694 55.0616374892 10.53470973
287 16 2 33.3610088062 55.0836985379 10.4519311986
288 16 2 34.330235457 55.3658223894 10.2201897417
289 17 1 9.64374525507 31.3622459394 46.0726614069
290 17 1 6.2074481405 28.6266523928 49.396067042
291 17 2 9.51544677408 31.8949793524 45.9883088012
292 17 2 9.06257540899 32.8033485424 45.782223352
293 17 2 8.36470047165 33.5307487514 45.5444045577
294 17 2 7.47931017707 34.0161375521 45.3137966448
295 17 2 6.48098347944 34.2205301981 45.1286866177
296 17 2 5.45459271179 34.1305528158 45.0232146601
297 17 2 4.48756805471 33.7596613415 45.0242624919
298 17 2 3.66192887484 33.1469151049 45.1490032845
299 17 2 3.04680822192 32.3534168393 45.4033364437
300 17 2 2.69215182531 31.456743586 45.7813499201
301 17 2 2.62416588317 30.5438760792 46.2658590508
302 17 2 2.84292854716 29.7032710482 46.8299728245
303 17 2 3.32238279951 29.016798993 47.4395448124
304 17 2 4.01271137145 28.5522822497 48.0562853811
305 17 2 4.84487724581 28.3573134495 48.6412515302
306 17 2 5.73691590771 28.4549177766 49.1583962799
307 18 1 46.1734980089 55.814934423 45.2427348078
308 18 1 50.454430316 52.4294036223 45.9832985838
309 18 2 45.8584521592 55.8977450142 45.6913652462
310 18 2 45.2711043388 55.8174571035 46.5406441522
311 18 2 44.743496214 55.4397645813 47.3479088525
312 18 2 44.3368217565 54.799771649 48.0534038584
313 18 2 44.1012526634 53.9564893922 48.6066492911
314 18 2 44.071365551 52.9874573245 48.9710417767
315 18 2 44.2629905329 51.9816761929 49.1271905924
316 18 2 44.6717684145 51.0314961693 49.0746849984
317 18 2 45.2735480028 50.224199766 48.8321316736
318 18 2 46.0265873228 49.6340466329 48.4354588448
319 18 2 46.8753581117 49.3155052994 47.9346416747
320 18 2 47.7556068399 49.2982887419 47.3891473688
321 18 2 48.6002109793 49.5846462492 46.8625151472
322 18 2 49.3452967618 50.1491584153 46.4165650803
323 18 2 49.9360608351 50.9410539443 46.1057636134
324 18 2 50.3317652128 51.8888371057 45.9722593233
325 19 1 39.7368429603 40.8413760563 24.57664269
326 19 1 37.0215095856 36.801307025 27.1537421861
327 19 2 39.5839309477 40.9299214989 24.0511349615
328 19 2 39.327804951 40.8627617825 23.0498421385
329 19 2 39.1145827806 40.4975686045 22.1043959371
330 19 2 38.9448341928 39.8651012901 21.3019815901
331 19 2 38.8151666245 39.0204793698 20.7167479576
332 19 2 38.7185344028 38.0381588117 20.4030493666
333 19 2 38.6448809092 37.0051458708 20.3904915867
334 19 2 38.5820551718 36.0130670651 20.6812334671
335 19 2 38.516919343 35.1498180469 21.2497901727
336 19 2 38.4365461241 34.4915525166 22.0453559515
337 19 2 38.3293970001 34.0957413351 22.996434731
338 19 2 38.1863738962 33.9959344489 24.0173564951
339 19 2 38.0016484047 34.1987030422 25.0160855181
340 19 2 37.7731930048 34.683040619 25.9026087908
341 19 2 37.5029658572 35.4022776007 26.5971400888
342 19 2 37.1967323306 36.2883349385 27.0373919399
343 20 1 33.4760520154 36.8921351627 52.770802511
344 20 1 33.2483128207 32.2506115487 55.7273255241
345 20 2 33.3211518163 36.8415746808 52.2408682532
346 20 2 33.1822104738 36.5662490781 51.2521370526
347 20 2 33.2369948283 36.0684291962 50.3455653176
348 20 2 33.4659218928 35.381305817 49.6051923495
349 20 2 33.8335367666 34.5553234382 49.0999095716
350 20 2 34.2917441055 33.6535826033 48.8771815482
351 20 2 34.7841916837 32.7460887199 48.958719915
352 20 2 35.2514065121 31.9033715461 49.3385045121
353 20 2 35.6362153938 31.1900568874 49.9833320808
354 20 2 35.8889558689 30.658976397 50.8358425125
355 20 2 35.9720026074 30.3463523333 51.8197468295
356 20 2 35.8631966998 30.268496149 52.8467804026
357 20 2 35.5578652901 30.4203218143 53.8247476662
358 20 2 35.0692474743 30.7758093733 54.6659251127
359 20 2 34.4272876478 31.2903764852 55.2950566884
360 20 2 33.6759062787 31.9049417983 55.6562128669
361 21 1 6.16090496035 25.0887372441 33.4359837695
362 21 1 0.865916400758 23.5854865789 33.2360624892
363 21 2 6.52535613971 24.6774524892 33.3624926823
364 21 2 7.07766488676 23.8017392075 33.390413414
365 21 2 7.4118634963 22.8484032092 33.618799129
366 21 2 7.48886321519 21.8939131461 34.0134103729
367 21 2 7.29301720574 21.0148428552 34.5248573743
368 21 2 6.8335466478 20.2808921782 35.0931015834
369 21 2 6.14370029132 19.748534299 35.6529277743
370 21 2 5.27772406085 19.4558686001 36.1398879658
371 21 2 4.30591691137 19.4191481653 36.4961754129
372 21 2 3.30822356054 19.6312984222 36.6758932954
373 21 2 2.36694807579 20.0625619411 36.6492378984
374 21 2 1.55925242288 20.6632106208 36.4052150164
375 21 2 0.950123681713 21.368078064 35.9526419999
376 21 2 0.586450919603 22.1024990476 35.3193441143
377 21 2 0.492751574234 22.7891147461 34.5496184577
378 21 2 0.668936857323 23.3549234578 33.7001965844
379 22 1 51.6505948182 3.55752818205 42.9893013025
380 22 1 47.4738949016 0.00479629305157 43.508828837
381 22 2 51.6848545118 3.94065588031 43.3885758845
382 22 2 51.5211323594 4.68922410486 44.0853821281
383 22 2 51.0714679807 5.41174631744 44.6756887179
384 22 2 50.37201795 6.03227556952 45.1211226333
385 22 2 49.4817050912 6.48416087165 45.3965150047
386 22 2 48.4768480663 6.71612197419 45.4921950834
387 22 2 47.4442054527 6.69692321045 45.4148716639
388 22 2 46.4730682938 6.41822041358 45.1870216238
389 22 2 45.6471218326 5.89532143017 44.8448413098
390 22 2 45.0368181751 5.16579091496 44.4349474892
391 22 2 44.6929550645 4.28602657015 44.0101285515
392 22 2 44.6420460148 3.32611888146 43.624533208
393 22 2 44.8839037859 2.36346285097 43.3287352083
394 22 2 45.3916574492 1.47570397323 43.1651238901
395 22 2 46.1142014886 0.73366138086 43.1640406809
396 22 2 46.9808537178 0.194873166088 43.3410136858
397 23 1 30.3240869554 13.0551051604 10.1694046596
398 23 1 34.2270847759 15.649619263 13.0628005038
399 23 2 30.1293622319 13.3354339978 9.73250790219
400 23 2 29.741216421 14.03313268 9.07276730967
401 23 2 29.3660063452 14.9072221445 8.6630316899
402 23 2 29.0537763944 15.8862844258 8.53400542035
403 23 2 28.848830752 16.8893340059 8.69080814579
404 23 2 28.7856953723 17.8331990888 9.11250815778
405 23 2 28.8859711763 18.6401021399 9.75403017638
406 23 2 29.1563652761 19.2447487746 10.5502636528
407 23 2 29.5880796673 19.6002788941 11.4219971498
408 23 2 30.1576131072 19.6825376617 12.2831379206
409 23 2 30.8289030915 19.4922770512 13.0485586729
410 23 2 31.5566127047 19.0550873092 13.641856338
411 23 2 32.2902627688 18.4190645794 14.0023156863
412 23 2 32.9788326745 17.6504272696 14.0904431045
413 23 2 33.57541056 16.8274806968 13.8915661675
414 23 2 34.0414690051 16.0334800954 13.4171709296
415 24 1 24.3780243891 19.9019746882 8.18746219279
416 24 1 21.3116941823 16.1160351138 10.7566868871
417 24 2 24.1492302715 20.1210190536 7.73243079897
418 24 2 23.6871377474 20.3049862042 6.82395688205
419 24 2 23.2017880053 20.1836010455 5.91709441056
420 24 2 22.7191359534 19.7693468463 5.09969687792
421 24 2 22.2648906241 19.1013998804 4.45146366173
422 24 2 21.8621719714 18.242058778 4.03667597196
423 24 2 21.5294036464 17.2710664325 3.89833805938
424 24 2 21.2786338072 16.2783419829 4.05425767295
425 24 2 21.1144370122 15.3557853001 4.49542300555
426 24 2 21.0334972802 14.5889009445 5.18682405848
427 24 2 21.0249103198 14.049005011 6.07064356275
428 24 2 21.0711773803 13.786725156 7.07152662678
429 24 2 21.1498001432 13.8273862339 8.10344881812
430 24 2 21.2353312896 14.1687021099 9.07755670068
431 24 2 21.3016938486 14.7809840259 9.91026621621
432 24 2 21.3245579348 15.6098465267 10.5308807982
433 25 1 26.370635146 59.1787591559 57.3582876596
434 25 1 23.0652825101 55.8253829759 60.2159347818
435 25 2 26.6897999037 59.5124147209 57.6651892286
436 25 2 27.0831146309 60.1863173772 58.3462597142
437 25 2 27.1859980661 60.8620030413 59.1244384553
438 25 2 26.9938356232 61.4664139703 59.9432542438
439 25 2 26.5289041247 61.9329886247 60.7425320834
440 25 2 25.8383414227 62.2077282962 61.4638777276
441 25 2 24.9898501062 62.2541187204 62.0559999156
442 25 2 24.0655268749 62.0564581007 62.4793852183
443 25 2 23.1543799875 61.6212882203 62.7098994172
444 25 2 22.3442167694 60.9767982029 62.7409871721
445 25 2 21.7136405767 60.1702552676 62.5842694963
446 25 2 21.3248866396 59.263696646 62.2684845803
447 25 2 21.2181497476 58.3282753138 61.836868503
448 25 2 21.4079207701 57.4377748848 61.3432145595
449 25 2 21.8816659128 56.6618847404 60.8469703709
450 25 2 22.6009690876 56.0598483205 60.4078196418
451 26 1 36.9784250715 23.5961274283 9.4112039577
452 26 1 42.2876174479 24.5664457188 10.5101096189
453 26 2 36.7126094404 23.2878186058 9.78759268214
454 26 2 36.4002738815 22.5680861059 10.4637065026
455 26 2 36.3580153637 21.7253321302 11.0642714244
456 26 2 36.5971933573 20.8428578364 11.5508218115
457 26 2 37.103516324 20.0075846166 11.8952836711
458 26 2 37.8383442929 19.3021318088 12.0825334056
459 26 2 38.7422106289 18.7972865104 12.1117762245
460 26 2 39.7402420085 18.5455518198 11.9966185847
461 26 2 40.7489826101 18.5763615387 11.7638280544
462 26 2 41.68400054 18.8933974833 11.4508936337
463 26 2 42.4675832207 19.4742539115 11.1026088887
464 26 2 43.035820359 20.2724796528 10.7669893252
465 26 2 43.344428932 21.2218118145 10.4908961043
466 26 2 43.3727892801 22.2422151893 10.3157649696
467 26 2 43.1258244481 23.2471769164 10.2738296622
468 26 2 42.6335514833 24.151591535 10.3851840371
469 27 1 33.9646593364 20.3350078507 4.66833664652
470 27 1 29.62322992 17.1879036198 5.92705047814
471 27 2 33.8500487912 20.7826309538 4.36194028211
472 27 2 33.5226536376 21.4637434173 3.65370550707
473 27 2 33.0607357713 21.8939687827 2.83258658097
474 27 2 32.4897550823 22.0396741992 1.98085349163
475 27 2 31.845111789 21.8931588581 1.18356649795
476 27 2 31.1689199512 21.4733558696 0.520823470511
477 27 2 30.5061690621 20.8241066393 0.0604595198078
478 27 2 29.9006235649 20.0101650244 -0.148135708971
479 27 2 29.3908340232 19.1112954641 -0.0785195634881
480 27 2 29.006623502 18.2150029972 0.270393549275
481 27 2 28.7663693993 17.4085577784 0.874233218659
482 27 2 28.6753284729 16.7710410016 1.68539422617
483 27 2 28.7251577222 16.3661371914 2.63737543477
484 27 2 28.8946747963 16.2363297955 3.65084091156
485 27 2 29.1517886193 16.3990291092 4.64085085414
486 27 2 29.4564242725 16.8449854469 5.52460327125
487 28 1 8.69878161625 49.343250656 19.9138686526
488 28 1 3.89845261863 50.0467505912 22.5212743139
489 28 2 8.99555221075 49.8053981083 19.8381870941
490 28 2 9.34743230524 50.7527673892 19.6115373298
491 28 2 9.4060988399 51.7407738855 19.3064149411
492 28 2 9.16311052833 52.6886384481 18.9669923101
493 28 2 8.63751985522 53.5192405901 18.6405680506
494 28 2 7.87413657293 54.1661474901 18.373256064
495 28 2 6.93944359982 54.5796688887 18.2057825736
496 28 2 5.91553755808 54.7313860149 18.1697742078
497 28 2 4.89264622942 54.6167417619 18.2848754507
498 28 2 3.96090491142 54.2554560368 18.5569581812
499 28 2 3.20214120312 53.6897284256 18.9775864921
500 28 2 2.6824169804 52.9803919905 19.524785565
501 28 2 2.4460073089 52.2013687537 20.1650445242
502 28 2 2.51136507534 51.4329322114 20.8563707234
503 28 2 2.86943913345 50.7543909551 21.5521170878
504 28 2 3.48449925384 50.2368602374 22.2052336743
505 29 1 42.9132445871 34.5621925764 13.1313900884
506 29 1 40.0969809853 31.3740663368 16.6301249072
507 29 2 42.8759580568 35.1070016854 13.2271684837
508 29 2 42.5752412694 36.0808427863 13.4112912554
509 29 2 41.9995550078 36.9201068731 13.603435451
510 29 2 41.2016430484 37.5488764887 13.8051370786
511 29 2 40.2545035162 37.9104193037 14.0170610521
512 29 2 39.2447356065 37.9723588798 14.2389405883
513 29 2 38.2646466618 37.7296255595 14.469601523
514 29 2 37.4038389904 37.204918531 14.7070693275
515 29 2 36.7410432303 36.4466369529 14.9487490737
516 29 2 36.3369425914 35.5244687024 15.1916619441
517 29 2 36.228641997 34.5230388034 15.4327167299
518 29 2 36.4262862243 33.5341964356 15.6689915744
519 29 2 36.9121352776 32.6486435116 15.8980002797
520 29 2 37.6421812674 31.9476678191 16.1179189064
521 29 2 38.5501594276 31.4957341969 16.3277520138
522 29 2 39.5535876945 31.3346090064 16.527423387
523 30 1 54.8692415055 19.6455764754 18.7516752717
524 30 1 59.05377444 18.2128738802 22.0340040671
525 30 2 54.8277448373 20.1883237162 18.6463936933
526 30 2 54.7667059042 21.2215654257 18.6835970449
527 30 2 54.7473656176 22.2011356873 19.019404024
528 30 2 54.7898036964 23.0427525535 19.6215487998
529 30 2 54.9084691849 23.6747075833 20.4334906778
530 30 2 55.1108635216 24.0444015745 21.3795673958
531 30 2 55.3968568347 24.1231386204 22.3718912208
532 30 2 55.7586997788 23.9087415453 23.3183593127
533 30 2 56.1817298346 23.4257503386 24.1310482675
534 30 2 56.6457076972 22.7231855034 24.734227732
535 30 2 57.1266619497 21.8700801735 25.0712627069
536 30 2 57.5990738937 20.9491882169 25.1097754381
537 30 2 58.0382034038 20.0494417877 24.8445964277
538 30 2 58.4223438201 19.2578457702 24.2982355976
539 30 2 58.7348003616 18.6515478801 23.5188306648
540 30 2 58.9654117411 18.2908071793 22.5757597186
541 31 1 61.5148886888 27.1176282847 1.89355709467
542 31 1 59.7713021469 22.3986894154 4.13591229538
543 31 2 61.4507736747 27.5672350121 2.21155679168
544 31 2 61.1107302783 28.3274286249 2.82732820271
545 31 2 60.5161245404 28.9175153811 3.43637656512
546 31 2 59.7253017793 29.2768180666 4.00046805748
547 31 2 58.8144911493 29.3656938529 4.48546636886
548 31 2 57.8708578766 29.1691474695 4.86444398949
549 31 2 56.9845587462 28.6981979197 5.12013646868
550 31 2 56.2405249289 27.988874174 5.24651595112
551 31 2 55.7107210878 27.0989313766 5.24934057457
552 31 2 55.4475862925 26.10258686 5.1456296551
553 31 2 55.4792545572 25.0837557438 4.96211249307
554 31 2 55.8069906185 24.128402647 4.73279218071
555 31 2 56.4050746632 23.3167066024 4.49584645337
556 31 2 57.2231465129 22.7157532873 4.29014805067
557 31 2 58.1907956091 22.3734206242 4.15172173286
558 31 2 59.2239784528 22.3140150363 4.11046087085
559 32 1 22.0624537176 16.4476383294 58.7158284748
560 32 1 24.237807095 14.2011296389 54.1817716474
561 32 2 22.1884668478 16.1896675375 59.1901200657
562 32 2 22.3539296682 15.5159834322 59.9591909678
563 32 2 22.4308375842 14.6438384769 60.5124961461
564 32 2 22.4303651847 13.6478594749 60.7966156202
565 32 2 22.370739744 12.6139598541 60.7826638408
566 32 2 22.2755799305 11.6315092469 60.46892241
567 32 2 22.171743127 10.7851880607 59.8809967013
568 32 2 22.0868775646 10.1472694394 59.0694821049
569 32 2 22.0469023758 9.77103206217 58.1053526057
570 32 2 22.0736452431 9.68590415676 57.0734919902
571 32 2 22.1828529558 9.89478131848 56.0649572719
572 32 2 22.3827561981 10.3737625965 55.1686794689
573 32 2 22.6733193781 11.0743289016 54.4633581509
574 32 2 23.0462438725 11.9277651886 54.0102885133
575 32 2 23.4857243886 12.8514233616 53.8477747401
576 32 2 23.9698895089 13.7562550812 53.9876388407
577 33 1 59.3801919822 19.1423834337 39.2845862916
578 33 1 58.6344850422 17.9181071723 33.9665317862
579 33 2 59.374570117 18.7081123903 39.629198838
580 33 2 59.1638900888 17.8446546946 40.1609440821
581 33 2 58.7185036379 16.9717676909 40.496201385
582 33 2 58.0881479435 16.1558259786 40.5941252927
583 33 2 57.3394188632 15.4580139842 40.4355016629
584 33 2 56.5497011771 14.9287494205 40.0244989027
585 33 2 55.8001154957 14.6030880574 39.3882880462
586 33 2 55.1681246724 14.497528629 38.5745663016
587 33 2 54.7204735957 14.6085090873 37.6472097777
588 33 2 54.5071058497 14.912731258 36.6804516141
589 33 2 54.5566116995 15.3692843098 35.7521161398
590 33 2 54.873622284 15.9233734957 34.9365257191
591 33 2 55.4383875199 16.5113143191 34.2977267776
592 33 2 56.2085761856 17.0663369386 33.8836524098
593 33 2 57.1231341227 17.5246717814 33.7217536059