ITEM: TIMESTEP
960000000
ITEM: NUMBER OF ATOMS
4320
ITEM: BOX BOUNDS pp pp pp
0.0000000000000000e+00 1.2699208415699999e+02
0.0000000000000000e+00 1.2699208415699999e+02
0.0000000000000000e+00 1.2699208415699999e+02
ITEM: ATOMS id type x y z ix iy iz
855 1 25.6559 34.9296 1.33147 3 5 -4
854 1 25.6518 34.919 0.295454 3 5 -4
1348 1 27.3374 34.9555 0.180564 3 2 -1
2151 8 17.0182 8.73427 3.36023 6 -5 1
2152 8 18.0435 8.87872 3.32235 6 -5 1
2153 8 18.9923 9.27967 3.43337 6 -5 1
2149 8 15.0886 9.27389 3.79088 6 -5 1
2148 8 14.3488 9.92462 4.11129 6 -5 1
2150 8 16.0043 8.8674 3.52699 6 -5 1
2154 8 19.784 9.89264 3.69972 6 -5 1
2147 8 13.8466 10.7682 4.44245 6 -5 1
2155 8 20.3521 10.6539 4.11368 6 -5 1
2156 8 20.6503 11.486 4.65408 6 -5 1
784 8 26.1239 11.4346 4.89885 -5 3 2
2146 8 13.6222 11.7357 4.73762 6 -5 1
2145 8 13.6904 12.7467 4.95334 6 -5 1
2143 8 13.8434 13.275 5.02304 6 -5 1
1496 8 13.8627 13.2925 5.04985 -2 5 1
787 8 23.9825 13.0789 3.55068 -5 3 2
786 8 24.7113 12.3684 3.74454 -5 3 2
785 8 25.451 11.8079 4.20516 -5 3 2
788 8 23.3414 13.8886 3.63297 -5 3 2
789 8 22.8567 14.7377 3.97563 -5 3 2
790 8 22.5827 15.5629 4.53916 -5 3 2
783 8 26.6586 11.2685 5.77064 -5 3 2
782 8 26.9959 11.3107 6.74936 -5 3 2
2158 8 20.378 13.0292 5.97487 6 -5 1
2157 8 20.6573 12.3053 5.28823 6 -5 1
1512 8 14.0614 13.7534 5.28548 -2 5 1
1511 8 14.2083 14.6846 5.71532 -2 5 1
2159 8 19.8437 13.5837 6.66799 6 -5 1
1509 8 13.6015 16.4947 6.46039 -2 5 1
1510 8 14.0509 15.6283 6.1128 -2 5 1
791 8 22.5548 16.3027 5.2639 -5 3 2
1508 8 12.8987 17.2008 6.74508 -2 5 1
792 8 22.7857 16.9039 6.07553 -5 3 2
776 8 23.0121 17.1532 6.51593 -5 3 2
4213 8 23.0154 17.1305 6.52921 3 2 12
1497 8 8.97466 11.3502 7.44582 -2 5 1
1495 8 9.45748 11.1053 7.56547 -2 5 1
781 8 27.0948 11.5435 7.75408 -5 3 2
1498 8 8.18935 12.0045 7.27654 -2 5 1
1499 8 7.62044 12.8644 7.17548 -2 5 1
1500 8 7.32192 13.8557 7.13317 -2 5 1
1501 8 7.32315 14.8917 7.13479 -2 5 1
4229 8 17.4674 14.8826 8.25271 3 2 12
4230 8 18.1588 14.263 7.79279 3 2 12
2144 8 18.6587 13.9776 7.63791 6 -5 1
4214 8 18.609 13.9849 7.62761 3 2 12
2160 8 19.1086 13.9104 7.32096 6 -5 1
1502 8 7.62617 15.8822 7.1615 -2 5 1
1503 8 8.20551 16.7406 7.19219 -2 5 1
1504 8 9.01052 17.3927 7.20537 -2 5 1
1505 8 9.96996 17.783 7.18117 -2 5 1
1506 8 10.9985 17.8798 7.10311 -2 5 1
1507 8 12.0047 17.6783 6.95961 -2 5 1
4215 8 23.3037 17.2923 6.97429 3 2 12
4216 8 23.6312 17.6611 7.88542 3 2 12
780 8 26.9362 11.9317 8.7015 -5 3 2
779 8 26.5241 12.4259 9.51354 -5 3 2
778 8 25.8858 12.967 10.1245 -5 3 2
4228 8 17.0266 15.595 8.8623 3 2 12
4227 8 16.8773 16.351 9.55492 3 2 12
4226 8 17.034 17.0972 10.2564 3 2 12
4217 8 23.6581 18.0733 8.83563 3 2 12
4218 8 23.381 18.4754 9.74939 3 2 12
260 8 19.9747 11.8271 11.8732 -8 6 3
259 8 20.4117 12.5541 11.2783 -8 6 3
258 8 21.1012 13.1803 10.8245 -8 6 3
257 8 21.985 13.6384 10.5373 -8 6 3
256 8 22.9873 13.8767 10.4274 -8 6 3
775 8 24.5823 13.7437 10.5691 -5 3 2
253 8 24.5553 13.7492 10.5855 -8 6 3
777 8 25.0693 13.4919 10.4869 -5 3 2
255 8 24.0214 13.8634 10.4891 -8 6 3
4225 8 17.4832 17.7814 10.8916 3 2 12
4224 8 18.1848 18.3569 11.3917 3 2 12
4223 8 19.0756 18.7868 11.6999 3 2 12
4222 8 20.0753 19.0478 11.7771 3 2 12
4221 8 21.0936 19.1316 11.6052 3 2 12
4220 8 22.0384 19.0463 11.1887 3 2 12
4219 8 22.8245 18.8153 10.5545 3 2 12
262 8 19.9722 10.378 13.3225 -8 6 3
261 8 19.8252 11.0755 12.5705 -8 6 3
2533 1 59.7386 35.0622 12.4541 2 3 -1
2534 1 60.1154 34.891 13.4039 2 3 -1
263 8 20.3976 9.80828 14.076 -8 6 3
265 8 21.888 9.2827 15.3809 -8 6 3
264 8 21.0578 9.42826 14.7783 -8 6 3
2693 8 20.793 16.506 15.4389 3 -3 -5
2696 8 23.7928 16.4543 15.1144 3 -3 -5
2698 8 25.3208 15.1151 15.3828 3 -3 -5
2697 8 24.6586 15.8941 15.2151 3 -3 -5
2694 8 21.7699 16.7672 15.2132 3 -3 -5
2695 8 22.8005 16.7519 15.1077 3 -3 -5
2535 1 60.4362 35.0197 14.3806 2 3 -1
266 8 22.8077 9.39493 15.8445 -8 6 3
267 8 23.7285 9.76482 16.1425 -8 6 3
268 8 24.5616 10.3687 16.2635 -8 6 3
269 8 25.2264 11.1617 16.2121 -8 6 3
2700 8 25.8251 13.1698 15.7846 3 -3 -5
2684 8 25.7556 12.6277 15.8781 3 -3 -5
254 8 25.776 12.5991 15.8491 -8 6 3
270 8 25.6577 12.0815 16.0086 -8 6 3
2690 8 18.9841 14.4813 16.7562 3 -3 -5
2699 8 25.7211 14.181 15.5847 3 -3 -5
2692 8 19.9569 15.9993 15.7819 3 -3 -5
2691 8 19.3357 15.3008 16.2287 3 -3 -5
2688 8 19.1823 12.8109 17.9269 3 -3 -5
2687 8 19.71 12.1268 18.4987 3 -3 -5
2689 8 18.932 13.6228 17.3339 3 -3 -5
2686 8 20.4651 11.6402 19.015 3 -3 -5
2685 8 21.3767 11.4028 19.4462 3 -3 -5
2683 8 21.8983 11.3891 19.6338 3 -3 -5
2972 8 21.8913 11.4264 19.6632 1 1 6
2988 8 22.4175 11.3499 19.8205 1 1 6
2987 8 23.3298 11.3161 20.3102 1 1 6
2986 8 24.0763 11.4123 21.0222 1 1 6
2985 8 24.5879 11.6128 21.9006 1 1 6
2971 8 18.1032 9.788 23.3352 1 1 6
2973 8 18.0098 10.1445 23.7494 1 1 6
2984 8 24.8167 11.8824 22.8745 1 1 6
2983 8 24.7409 12.1796 23.8641 1 1 6
2974 8 18.0697 10.8074 24.5434 1 1 6
2975 8 18.4293 11.427 25.2919 1 1 6
2981 8 23.7262 12.6826 25.5722 1 1 6
2982 8 24.3664 12.4605 24.7884 1 1 6
2976 8 19.0569 11.9637 25.9176 1 1 6
2977 8 19.8965 12.3854 26.3543 1 1 6
2978 8 20.8724 12.6707 26.5533 1 1 6
2979 8 21.8969 12.8104 26.4872 1 1 6
2980 8 22.8776 12.8087 26.1531 1 1 6
3389 2 52.9436 21.6147 30.9304 3 1 3
3388 2 52.4774 22.5292 30.7897 3 1 3
3387 2 52.0607 23.464 30.9506 3 1 3
3390 2 53.402 20.7924 31.3631 3 1 3
3391 2 53.7958 20.1257 32.0515 3 1 3
954 2 51.7407 24.4856 31.2827 5 2 3
3385 2 51.8773 23.9458 31.1547 3 1 3
938 2 51.8752 23.9617 31.1609 5 2 3
950 2 48.8278 26.637 32.7838 5 2 3
952 2 50.597 26.0601 31.9252 5 2 3
951 2 49.7515 26.4955 32.3363 5 2 3
953 2 51.2825 25.3695 31.5694 5 2 3
1350 1 26.3662 35.9525 1.68483 3 2 -1
1349 1 26.867 35.3317 1.02357 3 2 -1
1333 1 28.4464 41.3408 1.47101 3 2 -1
848 1 28.4401 41.3095 1.49844 3 5 -4
1335 1 28.3477 41.6015 0.991765 3 2 -1
1336 1 28.2323 41.8845 0.00180794 3 2 -1
4274 1 30.3976 41.6649 0.192198 3 4 -2
4276 1 29.0978 42.3228 1.63369 3 4 -2
4275 1 29.8377 42.115 0.938785 3 4 -2
1334 1 26.096 36.3635 1.94055 3 2 -1
4268 1 26.0698 36.344 1.92951 3 4 -2
856 1 25.8485 35.1767 2.31905 3 5 -4
857 1 26.1976 35.6499 3.17204 3 5 -4
4284 1 25.7621 36.7505 2.14744 3 4 -2
4283 1 25.3853 37.6347 2.53412 3 4 -2
4282 1 25.2899 38.6169 2.8498 3 4 -2
4281 1 25.4776 39.616 3.04995 3 4 -2
4280 1 25.9244 40.5494 3.10057 3 4 -2
4279 1 26.5826 41.3406 2.98127 3 4 -2
864 1 28.5455 41.0983 2.0001 3 5 -4
4278 1 27.3853 41.926 2.68718 3 4 -2
863 1 28.5866 40.5402 2.87208 3 5 -4
4277 1 28.2523 42.2607 2.22933 3 4 -2
858 1 26.6571 36.3185 3.81652 3 5 -4
859 1 27.1708 37.1335 4.19759 3 5 -4
860 1 27.6776 38.033 4.28436 3 5 -4
862 1 28.4343 39.8049 3.58594 3 5 -4
861 1 28.1168 38.9472 4.07277 3 5 -4
2678 1 61.3035 57.4556 3.73998 2 -5 1
2677 1 60.7085 58.2804 3.93833 2 -5 1
2675 1 60.3665 60.2295 4.47111 2 -5 1
2676 1 60.3866 59.2309 4.19555 2 -5 1
2674 1 60.6498 61.1938 4.72278 2 -5 1
2673 1 61.2103 62.0447 4.91054 2 -5 1
2529 1 58.6581 38.1402 10.2803 2 3 -1
2528 1 58.6997 39.1736 10.3432 2 3 -1
2531 1 59.0187 36.2311 10.9324 2 3 -1
2532 1 59.3561 35.5216 11.6078 2 3 -1
3476 1 59.4968 37.1323 11.5315 -1 0 -1
3492 1 59.0595 36.9225 11.8 -1 0 -1
2900 1 59.5097 37.138 11.5374 1 1 -3
2530 1 58.7733 37.13 10.4794 2 3 -1
2916 1 59.925 37.3071 11.2112 1 1 -3
2915 1 60.6984 37.8121 10.742 1 1 -3
2527 1 58.9102 40.1397 10.6525 2 3 -1
2493 2 23.7783 41.1845 12.0414 1 -1 -3
1320 2 27.1185 40.4662 11.5553 1 -2 -3
1319 2 26.1989 40.7124 11.964 1 -2 -3
1321 2 28.1374 40.3812 11.3872 1 -2 -3
1322 2 29.1666 40.449 11.4845 1 -2 -3
1323 2 30.1167 40.647 11.8473 1 -2 -3
2526 1 59.2866 40.9545 11.1702 2 3 -1
2525 1 59.8104 41.5475 11.8391 2 3 -1
2492 2 23.3558 42.1006 11.8054 1 -1 -3
2491 2 23.2276 43.1013 11.5693 1 -1 -3
2490 2 23.4056 44.0949 11.3357 1 -1 -3
2489 2 23.8737 44.9903 11.1065 1 -1 -3
2488 2 24.5893 45.7055 10.8835 1 -1 -3
2487 2 25.4874 46.1749 10.6677 1 -1 -3
2485 2 26.0137 46.3088 10.5557 1 -1 -3
2792 2 26.0252 46.2779 10.5077 3 -1 -3
2808 2 26.5654 46.3424 10.4011 3 -1 -3
2807 2 27.5958 46.4455 10.4356 3 -1 -3
2806 2 28.5752 46.5027 10.7686 3 -1 -3
2805 2 29.4203 46.4903 11.3679 3 -1 -3
3490 1 57.9273 36.2599 13.3746 -1 0 -1
3491 1 58.3805 36.5543 12.4906 -1 0 -1
2495 2 25.3284 39.9266 12.5047 1 -1 -3
2496 2 26.3145 39.7003 12.7281 1 -1 -3
2497 2 27.3247 39.7792 12.9443 1 -1 -3
2498 2 28.2667 40.1567 13.1527 1 -1 -3
2494 2 24.4564 40.437 12.2752 1 -1 -3
1318 2 25.4581 41.1138 12.567 1 -2 -3
1317 2 24.9596 41.6502 13.2999 1 -2 -3
2791 2 24.7905 41.9876 13.7615 3 -1 -3
1315 2 24.8079 41.9808 13.7183 1 -2 -3
2499 2 29.0547 40.7986 13.3537 1 -1 -3
2500 2 29.6167 41.6471 13.548 1 -1 -3
1324 2 30.905 40.9408 12.452 1 -2 -3
1325 2 31.464 41.2873 13.2526 1 -2 -3
2524 1 60.45 41.8685 12.5883 2 3 -1
2523 1 61.1629 41.8923 13.3397 2 3 -1
2501 2 29.9012 42.6252 13.7372 1 -1 -3
2804 2 30.0599 46.3914 12.177 3 -1 -3
2803 2 30.4413 46.1967 13.1204 3 -1 -3
3489 1 57.7317 36.0821 14.3764 -1 0 -1
3488 1 57.8019 36.053 15.4096 -1 0 -1
2536 1 60.6557 35.4326 15.3051 2 3 -1
1326 2 31.7467 41.6386 14.1854 1 -2 -3
1327 2 31.7316 41.9464 15.1745 1 -2 -3
2793 2 24.866 42.0762 14.3036 3 -1 -3
2794 2 25.219 42.3169 15.2474 3 -1 -3
2502 2 29.8822 43.6443 13.9233 1 -1 -3
2486 2 29.7473 44.1729 14.0221 1 -1 -3
3223 2 29.7214 44.2084 14.0462 3 -1 -3
3225 2 29.6261 44.7542 14.0663 3 -1 -3
3231 2 24.8872 47.0273 15.5115 3 -1 -3
3227 2 28.5737 46.4988 14.2879 3 -1 -3
3228 2 27.73 47.0616 14.4993 3 -1 -3
2802 2 30.5358 45.9058 14.1103 3 -1 -3
3226 2 29.2264 45.7068 14.1454 3 -1 -3
2801 2 30.3405 45.5269 15.0546 3 -1 -3
3230 2 25.7962 47.3347 15.1207 3 -1 -3
3229 2 26.7743 47.3477 14.7792 3 -1 -3
3487 1 58.122 36.1913 16.3853 -1 0 -1
3486 1 58.6534 36.5001 17.2193 -1 0 -1
2537 1 60.7379 36.0883 16.1031 2 3 -1
2522 1 60.548 37.4148 16.9424 2 3 -1
2538 1 60.6594 36.9231 16.7117 2 3 -1
2899 1 60.546 37.4133 16.9566 1 1 -3
2901 1 60.489 37.9175 17.18 1 1 -3
2904 1 61.0394 40.8838 17.1112 1 1 -3
2795 2 25.8134 42.651 16.0275 3 -1 -3
2796 2 26.5891 43.0663 16.5746 3 -1 -3
2797 2 27.4697 43.5431 16.8405 3 -1 -3
1329 2 30.8566 42.2618 17.0007 1 -2 -3
1328 2 31.4242 42.1663 16.1392 1 -2 -3
3235 2 23.3979 43.816 17.1955 3 -1 -3
3234 2 23.3498 44.7712 16.7972 3 -1 -3
2798 2 28.369 44.0562 16.803 3 -1 -3
2799 2 29.1993 44.577 16.4671 3 -1 -3
2800 2 29.8791 45.0764 15.8654 3 -1 -3
3233 2 23.6031 45.6805 16.3702 3 -1 -3
3232 2 24.1325 46.4574 15.9346 3 -1 -3
3485 1 59.3382 36.9674 17.8408 -1 0 -1
3483 1 60.8726 38.2584 18.2636 -1 0 -1
3484 1 60.1043 37.5664 18.1981 -1 0 -1
2903 1 60.7147 39.9427 17.3981 1 1 -3
2902 1 60.5202 38.9252 17.4186 1 1 -3
3238 2 25.1965 41.554 18.0645 3 -1 -3
3239 2 26.1727 41.2433 18.2197 3 -1 -3
3240 2 27.2047 41.2267 18.3102 3 -1 -3
1316 2 27.7468 41.3638 18.3552 1 -2 -3
1332 2 28.2378 41.6213 18.3566 1 -2 -3
3224 2 27.7466 41.3411 18.3353 3 -1 -3
1331 2 29.183 41.9935 18.1526 1 -2 -3
3236 2 23.7453 42.9056 17.5475 3 -1 -3
3237 2 24.3629 42.1267 17.8398 3 -1 -3
1330 2 30.0847 42.208 17.6897 1 -2 -3
3338 1 0.0927049 52.638 20.0728 5 9 -6
3337 1 0.439813 53.352 20.7385 5 9 -6
3336 1 0.515941 54.1929 21.3389 5 9 -6
3335 1 0.307113 55.0777 21.8361 5 9 -6
1073 2 46.6259 17.3386 34.4273 9 0 2
3624 2 58.8882 17.4698 33.8688 -2 -1 -4
3625 2 59.553 16.7699 33.4924 -2 -1 -4
3626 2 60.3958 16.3182 33.0935 -2 -1 -4
1072 2 46.3236 18.0874 33.7782 9 0 2
1071 2 46.1479 19.0122 33.3454 9 0 2
3393 2 54.1963 19.437 33.9397 3 1 3
3623 2 58.4526 18.3594 34.1725 -2 -1 -4
3622 2 58.2764 19.363 34.3601 -2 -1 -4
1070 2 46.1301 20.0309 33.1575 9 0 2
1069 2 46.2878 21.053 33.2207 9 0 2
3392 2 54.074 19.6637 32.9361 3 1 3
3621 2 58.3663 20.3945 34.3985 -2 -1 -4
3619 2 58.518 20.9256 34.3507 -2 -1 -4
1838 2 58.5111 20.9518 34.3694 -3 -4 -5
1068 2 46.622 21.9874 33.5183 9 0 2
1067 2 47.118 22.7513 34.0121 9 0 2
1854 2 58.5642 21.5036 34.367 -3 -4 -5
1074 2 47.0113 16.8318 35.2447 9 0 2
1075 2 47.4293 16.6111 36.1667 9 0 2
3394 2 54.1366 19.4547 34.9739 3 1 3
942 2 47.3175 20.7952 35.2401 5 2 3
941 2 48.2181 20.2832 35.255 5 2 3
940 2 49.2281 20.0539 35.2261 5 2 3
939 2 50.2601 20.1292 35.1747 5 2 3
937 2 50.789 20.2932 35.1459 5 2 3
1370 2 50.8 20.31 35.1211 6 2 3
1386 2 51.2975 20.5539 35.1401 6 2 3
1385 2 52.11 21.1795 35.2884 6 2 3
3395 2 53.8854 19.7036 35.9477 3 1 3
943 2 46.6036 21.5422 35.1642 5 2 3
944 2 46.1366 22.455 35.0155 5 2 3
1384 2 52.711 21.9695 35.5854 6 2 3
1383 2 53.0526 22.8455 36.0206 6 2 3
1853 2 58.7975 22.496 34.5521 -3 -4 -5
1076 2 47.826 16.6942 37.1202 9 0 2
1077 2 48.1497 17.0714 38.0292 9 0 2
3396 2 53.4505 20.1495 36.7757 3 1 3
3397 2 52.8566 20.7401 37.3856 3 1 3
3400 2 50.5624 22.6966 37.5091 3 1 3
3399 2 51.3593 22.0865 37.7664 3 1 3
3398 2 52.1428 21.41 37.725 3 1 3
1078 2 48.3552 17.7061 38.822 9 0 2
1079 2 48.4081 18.5382 39.437 9 0 2
1080 2 48.2881 19.4895 39.8293 9 0 2
1064 2 48.151 20.0156 39.938 9 0 2
1369 2 48.1602 20.0277 39.9657 6 2 3
1371 2 47.9029 20.4943 40.119 6 2 3
1372 2 47.6302 21.4649 40.3578 6 2 3
1373 2 47.6432 22.4909 40.5012 6 2 3
889 2 6.70959 2.57869 44.5382 2 -11 -2
890 2 7.47959 3.02578 44.0085 2 -11 -2
891 2 8.34197 3.54435 43.7618 2 -11 -2
892 2 9.23112 4.07299 43.82 2 -11 -2
893 2 10.079 4.54941 44.1772 2 -11 -2
894 2 10.8213 4.91603 44.8001 2 -11 -2
3927 2 9.70985 1.10916 45.6642 -2 -4 1
3925 2 9.84064 0.636025 45.9219 -2 -4 1
3404 2 9.856 0.591851 45.9421 0 -12 -1
3420 2 10.0864 0.137269 46.1604 0 -12 -1
887 2 5.66182 2.10696 46.2352 2 -11 -2
888 2 6.08915 2.25797 45.3035 2 -11 -2
3928 2 9.56381 2.09236 45.3719 -2 -4 1
3929 2 9.57042 3.12792 45.3399 -2 -4 1
3930 2 9.74506 4.12494 45.561 -2 -4 1
3931 2 10.0878 4.99605 46.0051 -2 -4 1
895 2 11.4034 5.12532 45.6312 2 -11 -2
896 2 11.7853 5.14407 46.5942 2 -11 -2
3932 2 10.5834 5.66534 46.6215 -2 -4 1
1101 2 14.9388 0.1306 47.1324 0 -12 -1
3926 2 15.0766 0.297721 47.6507 -2 -4 1
3942 2 15.1831 0.562308 48.1261 -2 -4 1
1099 2 15.0487 0.30601 47.6468 0 -12 -1
886 2 5.45354 2.15358 47.249 2 -11 -2
885 2 5.47031 2.40769 48.2533 2 -11 -2
898 2 11.8812 4.56539 48.5579 2 -11 -2
897 2 11.9451 4.95643 47.6005 2 -11 -2
3933 2 11.2026 6.0753 47.3439 -2 -4 1
3934 2 11.905 6.19207 48.0965 -2 -4 1
1113 2 8.63998 0.0812332 50.1601 0 -12 -1
3941 2 15.2748 1.23651 48.9074 -2 -4 1
3403 2 5.58921 2.6374 48.7931 0 -12 -1
883 2 5.56715 2.62587 48.7537 2 -11 -2
3405 2 5.72814 2.94415 49.2336 0 -12 -1
3406 2 6.12363 3.3326 50.1089 0 -12 -1
1100 2 10.8403 2.81421 50.1994 0 -12 -1
884 2 10.8931 2.85159 50.2034 2 -11 -2
900 2 11.1765 3.27569 49.9862 2 -11 -2
3940 2 15.2063 2.08654 49.4958 -2 -4 1
3939 2 14.9679 3.03143 49.8477 -2 -4 1
899 2 11.6125 3.99244 49.3782 2 -11 -2
3937 2 14.0195 4.8468 49.7775 -2 -4 1
3938 2 14.5655 3.98154 49.9411 -2 -4 1
3935 2 12.6425 6.0085 48.8007 -2 -4 1
3936 2 13.364 5.54483 49.382 -2 -4 1
1114 2 9.13107 0.91814 50.5232 0 -12 -1
1115 2 9.76151 1.73526 50.6144 0 -12 -1
3407 2 6.67644 3.4584 50.9761 0 -12 -1
3408 2 7.35158 3.31953 51.7496 0 -12 -1
1116 2 10.4628 2.47233 50.4186 0 -12 -1
3411 2 9.61988 1.6423 52.8213 0 -12 -1
3413 2 10.8073 0.106482 52.1646 0 -12 -1
3412 2 10.278 0.864952 52.6315 0 -12 -1
3409 2 8.10293 2.93807 52.3524 0 -12 -1
3410 2 8.87742 2.35824 52.7231 0 -12 -1
909 2 0.495259 22.5455 54.8086 -6 -1 -1
908 2 1.52118 22.6779 54.7503 -6 -1 -1
907 2 2.5439 22.5564 54.8631 -6 -1 -1
906 2 3.4746 22.1815 55.1215 -6 -1 -1
905 2 4.2329 21.577 55.4862 -6 -1 -1
493 2 0.357405 19.4432 56.1481 -6 -1 0
494 2 0.0357249 18.514 56.4744 -6 -1 0
93 2 4.8902 18.8151 56.6976 -5 0 0
94 2 4.64196 17.9395 57.1927 -5 0 0
91 2 5.01052 19.3349 56.5469 -5 0 0
901 2 5.00186 19.3613 56.5447 -6 -1 -1
492 2 0.649278 20.437 56.1197 -6 -1 0
904 2 4.75408 20.7875 55.9086 -6 -1 -1
903 2 4.99508 19.8744 56.3347 -6 -1 -1
491 2 0.903771 21.4031 56.394 -6 -1 0
490 2 1.11672 22.2522 56.9483 -6 -1 0
95 2 4.36723 17.258 57.9232 -5 0 0
96 2 4.07193 16.8326 58.8206 -5 0 0
489 2 1.28773 22.9053 57.7342 -6 -1 0
97 2 3.76388 16.7016 59.8011 -5 0 0
98 2 3.45203 16.8767 60.7734 -5 0 0
3366 2 1.5854 18.3481 60.6521 -5 -1 0
902 2 1.10579 18.3427 60.3264 -6 -1 -1
3350 2 1.12044 18.3673 60.3507 -5 -1 0
918 2 0.603816 18.2296 60.12 -6 -1 -1
99 2 3.14568 17.3417 61.6472 -5 0 0
100 2 2.85365 18.0539 62.3407 -5 0 0
3365 2 2.45726 18.5443 61.1764 -5 -1 0
3364 2 3.25732 19.0278 61.623 -5 -1 0
3362 2 4.3373 20.671 62.2008 -5 -1 0
3363 2 3.90595 19.7579 61.9691 -5 -1 0
104 2 1.94613 21.8674 62.3664 -5 0 0
105 2 1.79229 22.6219 61.6732 -5 0 0
3360 2 4.38806 22.7164 62.3182 -5 -1 0
3361 2 4.50535 21.687 62.3147 -5 -1 0
101 2 2.58345 18.9481 62.7888 -5 0 0
103 2 2.12805 20.9462 62.8043 -5 0 0
102 2 2.34057 19.9425 62.9489 -5 0 0
946 2 46.0688 24.434 34.4871 5 2 3
948 2 47.1009 26.0189 33.6979 5 2 3
947 2 46.4645 25.3176 34.1183 5 2 3
949 2 47.9149 26.4728 33.2455 5 2 3
424 1 26.579 63.8726 33.9284 -7 8 -7
423 1 26.9547 64.0198 32.9741 -7 8 -7
945 2 45.9544 23.4495 34.7892 5 2 3
1066 2 47.7462 23.2773 34.6464 9 0 2
1065 2 48.4649 23.5196 35.3522 9 0 2
1063 2 48.8685 23.5248 35.7322 9 0 2
3386 2 48.8615 23.523 35.7639 3 1 3
3402 2 49.155 23.4606 36.2301 3 1 3
1852 2 59.1989 23.3603 34.9588 -3 -4 -5
1851 2 59.7475 24.02 35.5394 -3 -4 -5
1850 2 60.4094 24.4174 36.2305 -3 -4 -5
425 1 26.3091 64.0104 34.9191 -7 8 -7
3401 2 49.8097 23.1729 36.9798 3 1 3
1382 2 53.1106 23.7212 36.5712 6 2 3
1381 2 52.8864 24.5105 37.2039 6 2 3
1849 2 61.1398 24.5186 36.9582 -3 -4 -5
1380 2 52.4073 25.135 37.8776 6 2 3
1378 2 50.9053 25.6573 39.1704 6 2 3
1377 2 50.0329 25.4947 39.7051 6 2 3
1379 2 51.724 25.5314 38.5479 6 2 3
1374 2 47.934 23.4852 40.5196 6 2 3
1375 2 48.4691 24.3635 40.3943 6 2 3
1376 2 49.1931 25.0521 40.1201 6 2 3
1708 1 9.98058 60.5957 48.1724 0 0 -1
1707 1 10.9478 60.5177 47.8093 0 0 -1
1706 1 11.9811 60.5221 47.7337 0 0 -1
1705 1 12.9906 60.5904 47.9567 0 0 -1
1704 1 13.8886 60.698 48.4621 0 0 -1
1709 1 9.16326 60.7672 48.7856 0 0 -1
1703 1 14.5975 60.8169 49.2083 0 0 -1
1433 1 7.12827 61.8984 50.2072 5 -3 -2
1694 1 8.35568 61.2154 50.069 0 0 -1
4285 1 8.32101 61.1955 50.1284 3 -1 -2
1710 1 8.56605 61.0349 49.5888 0 0 -1
1702 1 15.0571 60.918 50.1313 0 0 -1
1425 1 13.6424 61.9475 50.2829 5 -3 -2
1432 1 7.66097 62.6559 49.7425 5 -3 -2
1431 1 8.42645 63.2762 49.422 5 -3 -2
1430 1 9.36018 63.6944 49.2585 5 -3 -2
1429 1 10.3823 63.8639 49.2503 5 -3 -2
1428 1 11.4048 63.7608 49.3818 5 -3 -2
1426 1 13.1072 62.7657 49.94 5 -3 -2
1427 1 12.3397 63.3862 49.6246 5 -3 -2
1435 1 6.90935 60.2874 51.4548 5 -3 -2
4301 1 14.3511 60.2503 51.3728 3 -1 -2
1434 1 6.87168 61.0813 50.7902 5 -3 -2
4288 1 7.69279 61.4677 51.5536 3 -1 -2
4287 1 8.05071 61.3433 50.5893 3 -1 -2
4302 1 14.0663 61.013 50.732 3 -1 -2
1701 1 15.2297 60.9739 51.1514 0 0 -1
1423 1 13.8169 61.4522 50.4606 5 -3 -2
4286 1 13.8286 61.445 50.4785 3 -1 -2
1437 1 7.80682 59.0828 52.8489 5 -3 -2
1438 1 8.57435 58.7988 53.4843 5 -3 -2
4299 1 14.1899 59.0898 53.0543 3 -1 -2
1436 1 7.23263 59.5974 52.1569 5 -3 -2
4300 1 14.3973 59.5942 52.1734 3 -1 -2
1699 1 14.6956 60.8629 53.1269 0 0 -1
4289 1 7.56338 61.3977 52.5792 3 -1 -2
4290 1 7.68505 61.1541 53.5788 3 -1 -2
1700 1 15.104 60.9612 52.1797 0 0 -1
1439 1 9.46005 58.7798 54.0215 5 -3 -2
1440 1 10.3779 59.0359 54.4282 5 -3 -2
4297 1 13.0695 58.6451 54.7117 3 -1 -2
4296 1 12.2371 58.7161 55.3245 3 -1 -2
4298 1 13.7372 58.7686 53.9291 3 -1 -2
4291 1 8.05745 60.774 54.4678 3 -1 -2
4292 1 8.65739 60.3065 55.1713 3 -1 -2
1424 1 10.8502 59.281 54.584 5 -3 -2
1693 1 10.889 59.2964 54.5875 0 0 -1
1695 1 11.3603 59.557 54.7196 0 0 -1
1697 1 13.2193 60.3808 54.464 0 0 -1
1696 1 12.2944 60.0046 54.7406 0 0 -1
1698 1 14.0462 60.6696 53.9107 0 0 -1
4295 1 11.305 58.9603 55.7052 3 -1 -2
4293 1 9.44093 59.8088 55.6316 3 -1 -2
4294 1 10.3474 59.341 55.813 3 -1 -2
92 2 1.38062 23.1449 58.228 -5 0 0
108 2 1.43848 23.306 58.7554 -5 0 0
487 2 1.36289 23.1517 58.2251 -6 -1 0
1630 2 16.0797 32.6704 58.3296 -1 0 1
1631 2 16.4497 32.0354 59.0599 -1 0 1
1628 2 15.5193 34.4899 57.5711 -1 0 1
1629 2 15.7543 33.5122 57.8208 -1 0 1
1627 2 15.4122 35.5201 57.5947 -1 0 1
1626 2 15.4589 36.5149 57.8807 -1 0 1
1625 2 15.6712 37.3892 58.3944 -1 0 1
1624 2 16.0461 38.0692 59.0803 -1 0 1
3463 1 20.3991 64.2703 58.9961 -4 2 0
3465 1 22.0684 64.2185 57.8083 -4 2 0
3464 1 21.1725 64.1298 58.3211 -4 2 0
107 2 1.54638 23.3758 59.7834 -5 0 0
106 2 1.66144 23.1405 60.7859 -5 0 0
1632 2 16.8144 31.6592 59.9538 -1 0 1
3330 2 13.2668 34.932 60.3953 -1 1 0
2845 2 12.8171 34.8863 60.7662 -1 0 2
3314 2 12.8408 34.8547 60.7417 -1 1 0
3328 2 15.2106 35.1444 59.7817 -1 1 0
3329 2 14.1909 35.061 59.9449 -1 1 0
3327 2 16.2378 35.1565 59.9163 -1 1 0
3326 2 17.1836 35.0781 60.332 -1 1 0
1623 2 16.5654 38.4988 59.8672 -1 0 1
2846 2 16.8914 38.5903 60.3206 -1 0 2
2862 2 17.3054 38.527 60.6839 -1 0 2
1621 2 16.8913 38.6131 60.3009 -1 0 1
3358 2 3.339 24.4596 62.072 -5 -1 0
3359 2 3.9894 23.6685 62.2287 -5 -1 0
3355 2 0.48734 25.2863 61.5322 -5 -1 0
3356 2 1.5114 25.3039 61.6886 -5 -1 0
3357 2 2.48943 25.0208 61.8802 -5 -1 0
1455 2 11.3257 31.646 61.5262 -2 0 1
1456 2 11.9121 30.9995 62.0845 -2 0 1
1633 2 17.1244 31.5704 60.9384 -1 0 1
1454 2 10.8371 32.4912 61.1794 -2 0 1
1634 2 17.3354 31.7713 61.9327 -1 0 1
1453 2 10.5035 33.4652 61.0632 -2 0 1
1452 2 10.3681 34.4862 61.1758 -2 0 1
2847 2 12.4512 34.9889 61.1699 -1 0 2
3325 2 17.9666 34.8984 60.9863 -1 1 0
3324 2 18.52 34.6155 61.8153 -1 1 0
1451 2 10.4559 35.4682 61.4943 -2 0 1
1450 2 10.7718 36.3287 61.9772 -2 0 1
2848 2 11.9606 35.2027 62.057 -1 0 2
1449 2 11.2997 36.9963 62.5679 -2 0 1
2861 2 17.9042 38.4015 61.5201 -1 0 2
2860 2 18.2297 38.2608 62.4935 -1 0 2
1442 2 13.3813 30.5422 64.1469 -2 0 1
3313 2 13.3766 30.5536 64.1667 -1 1 0
1458 2 13.11 30.4874 63.6665 -2 0 1
1457 2 12.5298 30.6036 62.816 -2 0 1
1635 2 17.412 32.2376 62.8547 -1 0 1
1636 2 17.331 32.9212 63.629 -1 0 1
1637 2 17.0838 33.7538 64.1938 -1 0 1
3323 2 18.7982 34.2372 62.7388 -1 1 0
3322 2 18.7806 33.7799 63.6684 -1 1 0
2850 2 11.8607 35.7099 64.0401 -1 0 2
2849 2 11.7581 35.444 63.044 -1 0 2
1448 2 12.0043 37.4173 63.2002 -2 0 1
1447 2 12.8342 37.5602 63.8039 -2 0 1
1446 2 13.7264 37.4192 64.3114 -2 0 1
2859 2 18.2538 38.0983 63.5165 -1 0 2
1128 2 76.0843 12.919 0.0798504 -5 -2 -2
1127 2 76.6153 13.0791 0.954985 -5 -2 -2
1126 2 77.2037 13.5069 1.69278 -5 -2 -2
86 2 76.2698 14.2537 0.82858 0 0 -4
85 2 75.3172 14.1151 0.445342 0 0 -4
87 2 77.2938 14.386 0.914086 0 0 -4
88 2 78.2975 14.5191 0.694016 0 0 -4
89 2 79.1907 14.66 0.188382 0 0 -4
1120 2 78.5718 18.7784 1.46612 -5 -2 -2
1117 2 77.7882 19.6619 0.414744 -5 -2 -2
1999 2 77.7915 19.7073 0.365324 -6 -2 -1
1119 2 78.1118 19.4175 0.792811 -5 -2 -2
2001 2 77.3174 19.8207 0.101107 -6 -2 -1
1125 2 77.7825 14.1718 2.23705 -5 -2 -2
1124 2 78.286 15.0218 2.54928 -5 -2 -2
1122 2 78.8425 16.9906 2.4308 -5 -2 -2
1123 2 78.6549 15.9879 2.61208 -5 -2 -2
1121 2 78.8185 17.947 2.03303 -5 -2 -2
1592 2 88.5446 29.2054 16.7175 3 0 5
1593 2 89.4345 29.5985 16.3611 3 0 5
1594 2 90.1726 30.2542 16.0467 3 0 5
1595 2 90.7012 31.1158 15.8194 3 0 5
1596 2 90.982 32.1077 15.7161 3 0 5
1588 2 84.9611 30.5107 17.6237 3 0 5
1589 2 85.7071 29.7947 17.5591 3 0 5
1590 2 86.6022 29.3114 17.3622 3 0 5
1591 2 87.5743 29.1077 17.0673 3 0 5
4070 2 84.1881 31.9266 17.4021 6 0 5
1585 2 84.2339 31.8998 17.4194 3 0 5
1587 2 84.4222 31.391 17.5339 3 0 5
4086 2 83.7789 32.3004 17.4173 6 0 5
4205 2 89.9049 32.3123 23.155 2 0 5
4204 2 90.9395 32.3673 23.15 2 0 5
6 2 63.3432 19.5889 31.4695 -2 -4 -7
7 2 63.7315 20.392 30.9425 -2 -4 -7
8 2 64.2686 21.2382 30.6798 -2 -4 -7
9 2 64.9213 22.0426 30.6975 -2 -4 -7
10 2 65.6461 22.7243 30.9864 -2 -4 -7
11 2 66.3927 23.2134 31.5125 -2 -4 -7
3628 2 62.3358 16.2768 32.4343 -2 -1 -4
3627 2 61.3492 16.1505 32.7243 -2 -1 -4
3629 2 63.2752 16.6802 32.2659 -2 -1 -4
3630 2 64.0911 17.3186 32.2502 -2 -1 -4
3631 2 64.7186 18.1284 32.4045 -2 -1 -4
4 2 63.0758 18.4239 33.1343 -2 -4 -7
5 2 63.1233 18.9097 32.2203 -2 -4 -7
3632 2 65.1099 19.0306 32.7306 -2 -1 -4
3633 2 65.239 19.9376 33.2146 -2 -1 -4
3634 2 65.1033 20.7612 33.8283 -2 -1 -4
12 2 67.1089 23.4578 32.2201 -2 -4 -7
13 2 67.7454 23.4275 33.0371 -2 -4 -7
2597 2 67.8763 16.8297 35.4449 1 -3 -5
3 2 63.1893 18.1836 34.1357 -2 -4 -7
1 2 63.3072 18.167 34.6771 -2 -4 -7
1837 2 63.2643 18.1569 34.7057 -3 -4 -5
1839 2 63.4769 18.1181 35.2163 -3 -4 -5
2596 2 68.3253 17.7619 35.4976 1 -3 -5
3635 2 64.7249 21.4212 34.5315 -2 -1 -4
3636 2 64.1475 21.8521 35.2761 -2 -1 -4
16 2 68.8129 21.7648 35.318 -2 -4 -7
15 2 68.6214 22.5486 34.668 -2 -4 -7
14 2 68.2599 23.1176 33.8812 -2 -4 -7
2601 2 64.5625 15.139 36.6807 1 -3 -5
2600 2 65.4969 15.1493 36.2332 1 -3 -5
2602 2 63.6771 15.431 37.1327 1 -3 -5
2599 2 66.4067 15.4588 35.8461 1 -3 -5
2598 2 67.2207 16.0372 35.5699 1 -3 -5
1840 2 63.8407 18.2785 36.173 -3 -4 -5
1841 2 64.1186 18.7258 37.0653 -3 -4 -5
2595 2 68.5384 18.7468 35.7385 1 -3 -5
2593 2 68.5521 19.2622 35.9424 1 -3 -5
2 2 68.5661 19.2825 35.9491 -2 -4 -7
18 2 68.6949 19.8216 35.9584 -2 -4 -7
2609 2 62.763 21.3992 36.7933 1 -3 -5
2610 2 63.3908 21.8584 36.1088 1 -3 -5
2594 2 63.7515 21.9857 35.7075 1 -3 -5
3620 2 63.7788 21.9718 35.6725 -2 -1 -4
17 2 68.8327 20.83 35.7642 -2 -4 -7
2603 2 62.9099 16.0007 37.5329 1 -3 -5
2604 2 62.319 16.7984 37.8295 1 -3 -5
2605 2 61.9468 17.7535 37.9805 1 -3 -5
2606 2 61.8156 18.781 37.9568 1 -3 -5
2607 2 61.9256 19.7893 37.7455 1 -3 -5
1842 2 64.2695 19.4167 37.8225 -3 -4 -5
1843 2 64.2637 20.2861 38.3861 -3 -4 -5
2608 2 62.2553 20.6887 37.3508 1 -3 -5
1844 2 64.086 21.2522 38.7155 -3 -4 -5
1845 2 63.7368 22.2247 38.7913 -3 -4 -5
1847 2 62.602 23.8326 38.2197 -3 -4 -5
1846 2 63.2321 23.1126 38.6172 -3 -4 -5
1848 2 61.8882 24.3168 37.6457 -3 -4 -5
2948 1 76.2313 24.5198 55.4686 -1 -2 5
2947 1 76.0062 25.453 55.0789 -1 -2 5
2946 1 75.8766 26.4748 54.9663 -1 -2 5
2945 1 75.8714 27.4973 55.1337 -1 -2 5
2944 1 76.0078 28.4325 55.5581 -1 -2 5
2949 1 76.5146 23.7549 56.1075 -1 -2 5
2950 1 76.8134 23.2228 56.9447 -1 -2 5
2943 1 76.2904 29.2005 56.1936 -1 -2 5
2942 1 76.7101 29.7367 56.9745 -1 -2 5
2951 1 77.0836 22.9667 57.9116 -1 -2 5
2952 1 77.2837 23.0047 58.9275 -1 -2 5
1358 1 79.6681 22.8151 59.1771 0 -1 6
1357 1 80.3562 23.5893 59.1535 0 -1 6
1356 1 80.8 24.5229 59.2232 0 -1 6
1368 1 74.5469 27.6273 58.8976 0 -1 6
1352 1 74.8808 27.9987 58.6568 0 -1 6
2214 1 75.2611 28.4561 58.6211 -1 -2 6
2198 1 74.9163 28.0219 58.621 -1 -2 6
2213 1 75.9793 29.1746 58.8242 -1 -2 6
2212 1 76.7487 29.7091 59.2667 -1 -2 6
2941 1 77.2457 29.9973 57.8222 -1 -2 5
2940 1 77.8652 29.9639 58.652 -1 -2 5
1360 1 77.8001 22.0069 59.4166 0 -1 6
1361 1 76.777 22.0471 59.5749 0 -1 6
1364 1 74.3511 23.8242 59.8277 0 -1 6
1362 1 75.8088 22.388 59.7159 0 -1 6
1363 1 74.9772 22.9989 59.809 0 -1 6
2936 1 77.3493 23.1433 59.4602 -1 -2 5
2199 1 77.4448 23.016 60.0189 -1 -2 6
2197 1 77.3332 23.1306 59.488 -1 -2 6
1359 1 78.7917 22.271 59.2737 0 -1 6
1365 1 73.9809 24.7889 59.7521 0 -1 6
1355 1 80.9657 25.5306 59.3978 0 -1 6
1366 1 73.8937 25.8054 59.5713 0 -1 6
1367 1 74.0906 26.7811 59.2837 0 -1 6
1354 1 80.8451 26.5204 59.6793 0 -1 6
2937 1 79.815 28.31 60.2551 -1 -2 5
1351 1 80.1517 27.7994 60.2986 0 -1 6
1353 1 80.4557 27.4018 60.0602 0 -1 6
2935 1 80.1151 27.848 60.3172 -1 -2 5
2210 1 78.2225 30.0238 60.6556 -1 -2 6
2211 1 77.5146 30.0035 59.8994 -1 -2 6
2938 1 79.1935 29.0745 59.9344 -1 -2 5
2939 1 78.529 29.6448 59.3807 -1 -2 5
2201 1 78.1487 23.2978 61.9228 -1 -2 6
2200 1 77.7518 23.0155 61.0084 -1 -2 6
2209 1 78.8233 29.7608 61.4577 -1 -2 6
2208 1 79.2777 29.2313 62.2235 -1 -2 6
2202 1 78.5841 23.8447 62.6876 -1 -2 6
2204 1 79.3511 25.5411 63.5442 -1 -2 6
2203 1 79.0028 24.6133 63.242 -1 -2 6
2205 1 79.5821 26.5506 63.5757 -1 -2 6
2207 1 79.5598 28.4762 62.8745 -1 -2 6
2206 1 79.6591 27.5571 63.3424 -1 -2 6
592 1 81.4294 54.2649 1.58548 1 1 -7
591 1 80.7986 54.3425 0.767182 1 1 -7
2723 1 79.5601 56.3452 1.11134 1 1 -8
2722 1 79.6789 56.9606 0.286299 1 1 -8
2734 1 86.5618 57.3394 1.43826 1 1 -8
2735 1 86.2833 58.2525 1.03557 1 1 -8
2736 1 85.7393 59.0924 0.766932 1 1 -8
580 1 84.262 60.4824 0.114578 1 1 -7
579 1 85.0184 59.9085 0.5293 1 1 -7
2720 1 85.358 59.4879 0.692484 1 1 -8
577 1 85.3569 59.5056 0.703841 1 1 -7
569 1 86.3609 60.0488 0.975836 1 1 -7
2724 1 79.7408 55.6863 1.89015 1 1 -8
2725 1 80.2087 55.0558 2.56619 1 1 -8
2726 1 80.9249 54.5232 3.09228 1 1 -8
593 1 82.0592 54.4923 2.3761 1 1 -7
594 1 82.6182 55.0053 3.08159 1 1 -7
2730 1 84.8361 54.3433 3.2855 1 1 -8
2731 1 85.6456 54.8674 2.90672 1 1 -8
2732 1 86.2319 55.5786 2.43365 1 1 -8
3577 1 67.4675 56.819 3.14967 7 -5 0
2733 1 86.5455 56.4244 1.92386 1 1 -8
3578 1 67.786 57.6821 2.67315 7 -5 0
3579 1 67.8876 58.6689 2.37419 7 -5 0
3580 1 67.7768 59.6958 2.29211 7 -5 0
3581 1 67.4771 60.6755 2.44645 7 -5 0
571 1 86.0929 59.3514 2.8842 1 1 -7
570 1 86.3409 59.7899 1.97884 1 1 -7
3041 1 61.7986 61.5054 3.13482 6 -5 1
3040 1 62.3296 62.1705 2.54401 6 -5 1
3034 1 67.7689 62.4096 2.80651 6 -5 1
3582 1 67.0294 61.5251 2.83522 7 -5 0
3566 1 66.7483 61.9001 3.1314 7 -5 0
2665 1 66.7296 61.9184 3.18313 2 -5 1
3033 1 68.3087 61.6803 3.30673 6 -5 1
3039 1 63.0925 62.7322 2.12454 6 -5 1
3038 1 64.0234 63.128 1.90016 6 -5 1
3037 1 65.043 63.3105 1.87686 6 -5 1
3036 1 66.0641 63.2518 2.04226 6 -5 1
3035 1 66.9992 62.946 2.36683 6 -5 1
2728 1 82.8405 53.9797 3.57736 1 1 -8
2727 1 81.8283 54.1491 3.43493 1 1 -8
2729 1 83.8731 54.0423 3.52102 1 1 -8
3574 1 65.4554 55.6003 5.03993 7 -5 0
3575 1 66.2608 55.735 4.40221 7 -5 0
578 1 82.8654 55.3812 3.40567 1 1 -7
560 1 82.8789 55.3878 3.42766 1 1 -7
576 1 83.1465 55.7461 3.75537 1 1 -7
2679 1 62.1174 56.8231 3.63567 2 -5 1
2680 1 63.0766 56.4318 3.652 2 -5 1
2681 1 64.094 56.3085 3.80458 2 -5 1
2682 1 65.0771 56.4558 4.09659 2 -5 1
3025 1 65.5671 56.6849 4.30294 6 -5 1
2666 1 65.5565 56.6383 4.30672 2 -5 1
3027 1 66.0524 56.8644 4.50204 6 -5 1
3576 1 66.9479 56.1518 3.74823 7 -5 0
3028 1 66.9252 57.3771 4.72325 6 -5 1
575 1 83.7435 56.487 4.16561 1 1 -7
574 1 84.4081 57.2734 4.28066 1 1 -7
3029 1 67.6788 58.0878 4.74345 6 -5 1
3030 1 68.239 58.943 4.57527 6 -5 1
573 1 85.068 58.049 4.08968 1 1 -7
572 1 85.6512 58.7581 3.60973 1 1 -7
3567 1 61.4813 60.1489 4.74356 7 -5 0