ITEM: TIMESTEP
960000000
ITEM: NUMBER OF ATOMS
4320
ITEM: BOX BOUNDS pp pp pp
0.0000000000000000e+00 1.2699208415699999e+02
0.0000000000000000e+00 1.2699208415699999e+02
0.0000000000000000e+00 1.2699208415699999e+02
ITEM: ATOMS id type x y z ix iy iz
1682 2 14.1032 0.311562 1.70401 -28 -25 8
1683 2 14.8327 0.820318 1.17246 -28 -25 8
1684 2 15.4719 1.55746 0.823924 -28 -25 8
1685 2 15.9781 2.45308 0.701189 -28 -25 8
1686 2 16.3206 3.42283 0.82648 -28 -25 8
1687 2 16.4838 4.37558 1.19941 -28 -25 8
1474 4 1.91699 6.64124 1.27706 -11 7 4
1473 4 2.93737 6.47459 1.34416 -11 7 4
1472 4 3.94556 6.57493 1.5608 -11 7 4
1688 2 16.4682 5.22179 1.79703 -28 -25 8
1476 4 0.199063 7.72823 1.53625 -11 7 4
1475 4 0.976084 7.06901 1.34885 -11 7 4
1681 2 13.3345 0.0802875 2.35907 -28 -25 8
1680 2 12.5812 0.150296 3.0669 -28 -25 8
4012 2 14.9064 2.63383 2.91081 21 11 -2
4013 2 15.3722 2.07397 3.64769 21 11 -2
4011 2 14.545 3.42406 2.34655 21 11 -2
4010 2 14.3354 4.37546 1.99391 21 11 -2
4009 2 14.3111 5.40412 1.87258 21 11 -2
4008 2 14.4886 6.41908 1.98117 21 11 -2
1689 2 16.2908 5.88159 2.57589 -28 -25 8
1690 2 15.9832 6.29213 3.47604 -28 -25 8
1471 4 4.85102 6.92379 1.92398 -11 7 4
1470 4 5.57255 7.48007 2.41733 -11 7 4
1469 4 6.04575 8.18373 3.01264 -11 7 4
4007 2 14.8661 7.33065 2.29734 21 11 -2
4006 2 15.4236 8.05855 2.77983 21 11 -2
1468 4 6.22881 8.96132 3.6724 -11 7 4
4005 2 16.1246 8.53923 3.37223 21 11 -2
1678 2 11.327 1.1524 4.34078 -28 -25 8
1679 2 11.8964 0.517928 3.75197 -28 -25 8
4171 2 19.0343 0.283891 5.03022 10 -8 -7
4172 2 19.7347 0.965479 4.68635 10 -8 -7
273 2 10.5529 3.036 5.01828 17 -5 3
1675 2 10.7572 2.51175 4.91309 -28 -25 8
271 2 10.7212 2.51786 4.91537 17 -5 3
1677 2 10.9095 1.99859 4.76864 -28 -25 8
288 2 16.4189 1.74049 5.4973 17 -5 3
272 2 16.1969 1.7906 4.99173 17 -5 3
3998 2 16.1582 1.76564 4.98458 21 11 -2
4014 2 15.8857 1.79273 4.50248 21 11 -2
4174 2 20.5751 2.82662 4.51325 10 -8 -7
4173 2 20.26 1.83967 4.50374 10 -8 -7
274 2 10.381 3.98505 5.39672 17 -5 3
4176 2 20.5322 4.77628 5.14332 10 -8 -7
4175 2 20.6642 3.83621 4.72824 10 -8 -7
1692 2 15.1594 6.23124 5.35159 -28 -25 8
1691 2 15.5889 6.41327 4.42647 -28 -25 8
3997 2 20.4111 5.25988 5.45415 21 11 -2
4160 2 20.3791 5.21939 5.43927 10 -8 -7
4001 2 19.2771 7.56938 5.49085 21 11 -2
4002 2 18.5561 8.22068 5.13101 21 11 -2
1467 4 6.10642 9.73266 4.35322 -11 7 4
4003 2 17.7506 8.62122 4.61699 21 11 -2
4004 2 16.9197 8.7317 4.00808 21 11 -2
4166 2 14.9607 1.07417 7.31484 10 -8 -7
4167 2 15.6343 0.361794 6.9799 10 -8 -7
287 2 16.7114 1.84298 6.48594 17 -5 3
2412 4 0.796064 4.3704 5.96802 5 0 20
2396 4 1.22331 4.63521 5.7341 5 0 20
275 2 10.4189 4.8417 5.97823 17 -5 3
4162 2 14.3103 4.90666 6.80892 10 -8 -7
4163 2 14.1423 3.97776 7.23598 10 -8 -7
276 2 10.6766 5.53822 6.70069 17 -5 3
4161 2 14.6683 5.6705 6.20743 10 -8 -7
4159 2 14.922 5.98581 5.82851 10 -8 -7
1676 2 14.9346 6.0137 5.80935 -28 -25 8
4000 2 19.8622 6.72951 5.65127 21 11 -2
3999 2 20.2724 5.78042 5.5852 21 11 -2
4165 2 14.4695 1.97018 7.48611 10 -8 -7
4164 2 14.1926 2.96832 7.46389 10 -8 -7
285 2 16.6943 2.71813 8.339 17 -5 3
286 2 16.8107 2.18262 7.45971 17 -5 3
284 2 16.3595 3.39037 9.05277 17 -5 3
277 2 11.1439 6.02144 7.4891 17 -5 3
279 2 12.574 6.23565 8.94124 17 -5 3
278 2 11.7916 6.25765 8.2625 17 -5 3
176 2 2.33342 1.20887 10.9276 34 12 -7
175 2 2.35091 0.175411 10.9991 34 12 -7
3939 2 12.2774 1.51206 11.0445 12 -5 2
121 2 0.425817 2.52055 10.8514 16 14 -10
120 2 0.564467 3.52271 10.6279 16 14 -10
119 2 0.858875 4.51526 10.6681 16 14 -10
282 2 15.1216 4.85268 9.78027 17 -5 3
283 2 15.8235 4.12773 9.54512 17 -5 3
118 2 1.29874 5.40732 10.9582 16 14 -10
280 2 13.4334 5.96779 9.45435 17 -5 3
281 2 14.3046 5.4888 9.74593 17 -5 3
771 2 12.5785 6.92519 11.0728 10 -5 4
772 2 13.6128 6.86395 11.0764 10 -5 4
123 2 0.586387 0.847027 12.0233 16 14 -10
124 2 0.837914 0.329053 12.8847 16 14 -10
122 2 0.439035 1.60056 11.3277 16 14 -10
3938 2 12.917 0.701567 11.131 12 -5 2
178 2 1.77133 3.0938 11.503 34 12 -7
177 2 2.12925 2.21044 11.0968 34 12 -7
764 2 9.94865 1.78354 12.8667 10 -5 4
765 2 9.52211 2.62074 12.4301 10 -5 4
3941 2 11.1807 3.08799 11.7612 12 -5 2
3940 2 11.6762 2.32744 11.2618 12 -5 2
870 2 17.5423 2.91546 12.895 10 -5 4
180 2 0.791863 4.22142 12.9063 34 12 -7
179 2 1.30664 3.78342 12.121 34 12 -7
767 2 9.53523 4.53431 11.6966 10 -5 4
766 2 9.37867 3.5674 12.0342 10 -5 4
3942 2 10.8483 3.73895 12.4955 12 -5 2
867 2 16.1732 5.03916 11.2451 10 -5 4
869 2 17.2827 3.55721 12.1241 10 -5 4
868 2 16.8085 4.28189 11.5554 10 -5 4
115 2 3.20302 6.75214 12.8745 16 14 -10
116 2 2.50946 6.57961 12.1244 16 14 -10
117 2 1.86049 6.11714 11.4622 16 14 -10
768 2 9.98131 5.43043 11.4293 10 -5 4
769 2 10.6801 6.17114 11.2382 10 -5 4
770 2 11.5716 6.68602 11.122 10 -5 4
773 2 14.5839 6.50494 11.1139 10 -5 4
774 2 15.4073 5.87797 11.1632 10 -5 4
865 2 15.7912 5.43821 11.1976 10 -5 4
758 2 15.7609 5.45156 11.1864 10 -5 4
125 2 1.15416 0.0942774 13.843 16 14 -10
763 2 10.6156 1.13505 13.3229 10 -5 4
762 2 11.4584 0.737287 13.7756 10 -5 4
760 2 13.3403 0.824251 14.5824 10 -5 4
761 2 12.3964 0.629436 14.2022 10 -5 4
872 2 17.3051 2.04056 14.733 10 -5 4
871 2 17.5535 2.39947 13.7933 10 -5 4
3855 2 0.0987426 4.32712 13.7573 15 17 -7
164 2 0.517772 4.33909 13.3736 34 12 -7
3853 2 0.496078 4.35227 13.3715 15 17 -7
881 2 10.7535 4.01597 14.5744 10 -5 4
866 2 10.7516 4.06224 12.994 10 -5 4
3926 2 10.7532 4.02552 12.9605 12 -5 2
882 2 10.6836 4.09088 13.5434 10 -5 4
114 2 3.89449 6.61858 13.6344 16 14 -10
113 2 4.53737 6.19067 14.3251 16 14 -10
2767 2 8.43272 5.12353 14.7463 16 -9 -2
2765 2 9.93899 6.46472 14.3825 16 -9 -2
2766 2 9.08363 5.89404 14.5095 16 -9 -2
2762 2 12.9513 6.5315 14.5509 16 -9 -2
2761 2 13.8153 5.9832 14.7131 16 -9 -2
2764 2 10.926 6.77894 14.3589 16 -9 -2
2763 2 11.9598 6.80348 14.4229 16 -9 -2
4080 1 8.78216 8.84244 14.6441 5 -28 11
4079 1 8.43891 9.75611 14.2965 5 -28 11
2691 5 1.04966 20.1443 0.823049 -11 10 9
2690 5 1.83471 19.4949 1.01112 -11 10 9
2689 5 2.76984 19.0491 1.02658 -11 10 9
2687 5 4.77376 18.9388 0.611672 -11 10 9
2688 5 3.77756 18.8553 0.883824 -11 10 9
2686 5 5.67537 19.2997 0.250744 -11 10 9
2692 5 0.478519 20.9305 0.463688 -11 10 9
1831 5 1.20011 24.4316 1.35277 -12 8 22
1829 5 2.39705 25.4671 0.0508203 -12 8 22
1830 5 1.68553 25.0498 0.67776 -12 8 22
2065 2 14.7416 31.7817 0.315336 -2 31 4
2066 2 14.6233 32.139 1.28062 -2 31 4
3573 2 20.9698 32.9899 0.205138 -2 4 1
3574 2 20.7614 33.4685 1.10008 -2 4 1
1834 5 1.45605 22.0754 3.22083 -12 8 22
1835 5 2.0996 21.3907 3.65736 -12 8 22
1832 5 0.989058 23.6774 2.03104 -12 8 22
1833 5 1.07566 22.8644 2.66749 -12 8 22
2068 2 14.3303 33.5972 2.69055 -2 31 4
2067 2 14.4884 32.7632 2.09651 -2 31 4
1466 4 5.69105 10.4181 5.00979 -11 7 4
1836 5 2.95168 20.8814 3.95401 -12 8 22
1820 5 3.46693 20.7011 4.05098 -12 8 22
1461 4 1.2717 10.6443 6.69984 -11 7 4
1459 4 0.837555 10.3006 6.67253 -11 7 4
1463 4 3.1892 11.3183 6.43712 -11 7 4
1462 4 2.19532 11.1103 6.64309 -11 7 4
1465 4 5.02193 10.9459 5.59902 -11 7 4
1464 4 4.16139 11.2585 6.08395 -11 7 4
3627 0 5.27971 14.3936 6.84064 -20 4 17
3628 0 5.74976 15.2218 6.43252 -20 4 17
3629 0 6.25739 16.1181 6.32063 -20 4 17
3630 0 6.77457 16.9947 6.51422 -20 4 17
3631 0 7.27241 17.7659 6.9947 -20 4 17
1579 2 4.78987 27.7627 7.22586 -6 -11 19
1578 2 5.62901 28.37 7.20376 -6 -11 19
435 2 0.205119 30.403 6.52045 6 2 10
433 2 0.577033 30.7378 6.28166 6 2 10
4302 2 1.05392 30.9943 6.07736 -4 -9 4
4286 2 0.590671 30.7537 6.26418 -4 -9 4
4301 2 1.93562 31.5231 5.94916 -4 -9 4
4300 2 2.77842 32.1007 6.12078 -4 -9 4
4298 2 4.10219 33.14 7.29024 -4 -9 4
4299 2 3.5187 32.6612 6.58048 -4 -9 4
3625 0 4.54502 13.2533 8.37688 -20 4 17
3626 0 4.87182 13.7149 7.50874 -20 4 17
3632 0 7.72377 18.3554 7.71731 -20 4 17
3633 0 8.10578 18.7036 8.61524 -20 4 17
440 2 0.587339 26.3827 8.99612 6 2 10
1582 2 2.34525 26.9271 8.78548 -6 -11 19
1581 2 3.08371 26.9946 8.0619 -6 -11 19
1580 2 3.91948 27.2859 7.52331 -6 -11 19
1577 2 6.37393 29.0406 7.46608 -6 -11 19
1575 2 7.37699 30.2814 8.7523 -6 -11 19
1576 2 6.97021 29.7018 7.99601 -6 -11 19
4296 2 4.65678 33.637 9.19955 -4 -9 4
4297 2 4.48889 33.48 8.18928 -4 -9 4
3623 0 4.17243 13.1499 10.3895 -20 4 17
3624 0 4.31086 13.0571 9.36688 -20 4 17
3268 2 2.17605 14.8782 10.9443 11 -2 -3
3266 2 2.94461 16.7512 10.6259 11 -2 -3
3267 2 2.69757 15.7534 10.7558 11 -2 -3
3265 2 2.90059 17.7854 10.5839 11 -2 -3
3635 0 8.60326 18.5508 10.5974 -20 4 17
3263 2 2.00477 19.6108 10.8397 11 -2 -3
3264 2 2.57545 18.7669 10.6514 11 -2 -3
3634 0 8.40185 18.7728 9.60569 -20 4 17
3145 7 31.7683 20.7563 9.37398 17 -15 -22
3146 7 31.2246 20.8969 10.2447 17 -15 -22
441 2 1.43773 25.9184 9.3631 6 2 10
1583 2 1.75791 27.1014 9.62102 -6 -11 19
442 2 2.41597 25.7168 9.63857 6 2 10
444 2 4.39698 26.1743 9.89623 6 2 10
443 2 3.4332 25.8027 9.81559 6 2 10
445 2 5.21976 26.8039 9.89131 6 2 10
4285 2 1.19337 27.8477 10.9236 -4 -9 4
1568 2 1.23713 27.822 10.9285 -6 -11 19
1584 2 1.36174 27.5131 10.4853 -6 -11 19
447 2 6.1632 28.6137 9.70545 6 2 10
446 2 5.82685 27.6404 9.81947 6 2 10
448 2 6.19846 29.6413 9.57782 6 2 10
1550 2 4.97633 31.9292 9.37173 10 -7 15
434 2 4.99141 31.9061 9.39072 6 2 10
1566 2 4.53965 32.2704 9.35645 10 -7 15
449 2 5.92969 30.6357 9.4664 6 2 10
450 2 5.3817 31.5124 9.39954 6 2 10
1574 2 7.57067 30.7151 9.67311 -6 -11 19
1573 2 7.5471 30.9515 10.6816 -6 -11 19
1562 2 0.705386 32.3868 10.1638 10 -7 15
1563 2 1.59754 32.7713 9.80368 10 -7 15
1564 2 2.59461 32.8873 9.5471 10 -7 15
1565 2 3.60596 32.7175 9.39952 10 -7 15
4295 2 4.60373 33.583 10.2329 -4 -9 4
642 2 17.79 33.6636 10.5574 -11 -26 4
3622 0 4.12409 13.5293 11.3524 -20 4 17
3269 2 1.42164 14.2005 11.1565 11 -2 -3
3270 2 0.497181 13.7771 11.3555 11 -2 -3
3619 0 4.19117 14.5951 12.5184 -20 4 17
3621 0 4.15202 14.1666 12.1688 -20 4 17
3636 0 8.70988 18.0518 11.4991 -20 4 17
3620 0 8.73061 17.6848 11.9143 -20 4 17
3262 2 1.24649 20.2453 11.1493 11 -2 -3
3261 2 0.375672 20.6174 11.5697 11 -2 -3
3148 7 30.4914 21.997 11.8106 17 -15 -22
3147 7 30.7915 21.3214 11.0847 17 -15 -22
3149 7 30.3348 22.8681 12.3493 17 -15 -22
2433 7 30.2546 24.951 12.903 11 -18 -31
2431 7 30.3821 24.4636 12.6716 11 -18 -31
3134 7 30.3632 24.4118 12.6904 17 -15 -22
3150 7 30.319 23.861 12.6448 17 -15 -22
4288 2 1.3721 28.841 12.1408 -4 -9 4
4287 2 1.19943 28.1501 11.3883 -4 -9 4
4289 2 1.72883 29.6509 12.6795 -4 -9 4
4292 2 3.38852 32.1703 12.6065 -4 -9 4
1572 2 7.32191 30.9573 11.6929 -6 -11 19
1571 2 6.92911 30.7205 12.6219 -6 -11 19
4293 2 3.92549 32.8287 12.0136 -4 -9 4
4294 2 4.34779 33.3098 11.1989 -4 -9 4
644 2 17.2189 33.6153 12.525 -11 -26 4
643 2 17.4055 33.5269 11.5097 -11 -26 4
608 2 18.9817 33.5951 12.598 -3 -16 -14
4078 1 8.18039 10.7572 14.2299 5 -28 11
4077 1 8.0462 11.7622 14.4431 5 -28 11
2320 7 30.8654 16.3626 14.7247 6 -5 10
2435 7 29.5487 26.2697 14.304 11 -18 -31
2434 7 29.9348 25.7272 13.5103 11 -18 -31
1556 2 0.642949 27.8815 13.2315 10 -7 15
1555 2 1.52115 27.4902 13.6176 10 -7 15
1554 2 2.50935 27.3665 13.9033 10 -7 15
1552 2 4.45267 27.9683 14.151 10 -7 15
1553 2 3.51722 27.5285 14.0805 10 -7 15
1551 2 5.2302 28.6526 14.1263 10 -7 15
4290 2 2.22391 30.5195 12.9512 -4 -9 4
1570 2 6.418 30.2507 13.391 -6 -11 19
1549 2 5.55519 29.0995 14.0809 10 -7 15
1567 2 5.54348 29.1547 14.1218 -6 -11 19
1569 2 5.84864 29.5792 13.9372 -6 -11 19
4291 2 2.79901 31.381 12.9275 -4 -9 4
605 2 17.8092 31.7829 14.707 -3 -16 -14
606 2 18.3678 32.1505 13.9157 -3 -16 -14
645 2 17.2327 33.9333 13.511 -11 -26 4
607 2 18.7656 32.7709 13.1875 -3 -16 -14
3908 2 1.62566 0.321927 15.3397 13 16 -10
110 2 1.66048 0.325919 15.3228 16 14 -10
126 2 1.48977 0.164528 14.8206 16 14 -10
3924 2 1.80814 0.500622 15.8318 13 16 -10
2771 2 8.58952 1.66308 16.5814 16 -9 -2
759 2 14.2002 1.3069 14.9002 10 -5 4
3868 2 5.81762 1.69586 16.2511 15 17 -7
3869 2 5.96613 2.61233 15.7912 15 17 -7
2769 2 7.93747 3.2937 15.525 16 -9 -2
2770 2 8.12799 2.41035 16.0318 16 -9 -2
2758 2 15.0027 3.23333 15.0806 16 -9 -2
2755 2 14.6191 1.70075 15.0171 16 -9 -2
2757 2 14.8269 2.21239 15.066 16 -9 -2
757 2 14.5959 1.66907 15.0405 10 -5 4
874 2 16.1016 1.84624 16.3804 10 -5 4
873 2 16.8094 1.85577 15.6238 10 -5 4
111 2 5.51735 4.62945 15.2208 16 14 -10
3854 2 5.65697 4.09112 15.3247 15 17 -7
109 2 5.68642 4.10872 15.3082 16 14 -10
3870 2 5.83531 3.58034 15.4458 15 17 -7
2768 2 8.04046 4.22801 15.0893 16 -9 -2
879 2 11.6486 3.46062 16.3324 10 -5 4
880 2 11.0818 3.7939 15.5317 10 -5 4
2759 2 14.8846 4.26018 15.0094 16 -9 -2
112 2 5.08959 5.507 14.8738 16 14 -10
2760 2 14.4782 5.20395 14.8769 16 -9 -2
4081 1 9.16279 8.09177 15.2483 5 -28 11
4082 1 9.53007 7.56481 16.0613 5 -28 11
3191 1 7.67516 8.54811 16.5703 2 -5 -4
3190 1 7.97755 9.26585 15.887 2 -5 -4
3189 1 8.522 9.99455 15.391 2 -5 -4
1406 1 8.92399 10.3711 15.2128 2 -16 -3
1422 1 9.34762 10.6496 14.9884 2 -16 -3
3187 1 8.89881 10.3612 15.2151 2 -5 -4
1421 1 10.1329 11.2897 14.7716 2 -16 -3
3861 2 0.0795886 0.873125 17.9742 15 17 -7
3862 2 0.920577 0.314224 18.2062 15 17 -7
3923 2 2.03561 1.03177 16.6918 13 16 -10
3866 2 4.73067 0.299035 17.2843 15 17 -7
3867 2 5.39555 0.904141 16.7693 15 17 -7
2772 2 9.27485 1.12459 17.1416 16 -9 -2
2756 2 9.70951 0.94212 17.4334 16 -9 -2
3925 2 9.78244 0.939948 17.4388 12 -5 2
3928 2 11.1345 0.277026 17.9211 12 -5 2
3927 2 10.2354 0.733569 17.6829 12 -5 2
3922 2 2.08543 1.77173 17.4153 13 16 -10
3921 2 1.93848 2.6482 17.9479 13 16 -10
877 2 13.3139 2.6506 17.2102 10 -5 4
878 2 12.4124 3.06218 16.9079 10 -5 4
876 2 14.2811 2.27907 17.216 10 -5 4
875 2 15.2359 1.99716 16.9292 10 -5 4
3919 2 1.06765 4.46705 18.3132 13 16 -10
3920 2 1.5936 3.57645 18.2526 13 16 -10
3918 2 0.394006 5.23396 18.1357 13 16 -10
3192 1 7.63225 7.91729 17.3911 2 -5 -4
3193 1 7.84261 7.44138 18.287 2 -5 -4
4083 1 9.83449 7.30188 17.0161 5 -28 11
4084 1 10.0322 7.31924 18.0329 5 -28 11
3194 1 8.27692 7.17429 19.1889 2 -5 -4
3195 1 8.88547 7.15086 20.0271 2 -5 -4
4086 1 9.98434 8.13297 19.9132 5 -28 11
4085 1 10.0893 7.6076 19.0264 5 -28 11
3196 1 9.60263 7.38374 20.7377 2 -5 -4
3197 1 10.3529 7.86223 21.2683 2 -5 -4
4070 1 9.85918 8.49189 20.3168 5 -28 11
1405 1 9.81567 8.50945 20.3369 2 -16 -3
1407 1 9.75231 8.88777 20.7372 2 -16 -3
1408 1 9.77645 9.72335 21.3493 2 -16 -3
3198 1 11.0578 8.55323 21.5831 2 -5 -4
3199 1 11.6429 9.40425 21.6659 2 -5 -4
1409 1 9.97063 10.6669 21.7308 2 -16 -3
3200 1 12.0448 10.3483 21.5216 2 -5 -4
3201 1 12.2166 11.3097 21.1759 2 -5 -4
1743 2 18.2789 3.32207 23.3774 -8 -12 7
1742 2 18.5941 2.36024 23.5988 -8 -12 7
1744 2 17.9916 4.3141 23.4594 -8 -12 7
1745 2 17.7749 5.25507 23.8351 -8 -12 7
3591 2 10.9092 1.2482 25.4272 -13 -10 -17
1741 2 18.8916 1.50718 24.1059 -8 -12 7
1740 2 19.1277 0.831491 24.855 -8 -12 7
1739 2 19.264 0.385641 25.7803 -8 -12 7
3592 2 11.0163 2.22501 25.0989 -13 -10 -17
3593 2 11.2649 3.22911 25.0407 -13 -10 -17
3594 2 11.6497 4.16828 25.249 -13 -10 -17
3595 2 12.1523 4.9562 25.6962 -13 -10 -17
1746 2 17.6655 6.06832 24.4676 -8 -12 7
1730 2 17.6607 6.42698 24.8904 -8 -12 7
2882 2 17.6661 6.44719 24.9142 5 6 5
2898 2 17.7323 6.83082 25.3089 5 6 5
3590 2 10.9366 0.388398 26.0047 -13 -10 -17
1738 2 19.2714 0.201135 26.7998 -8 -12 7
2885 2 12.1526 3.2193 26.6021 5 6 5
2884 2 12.9728 2.62456 26.3853 5 6 5
4196 2 14.5214 2.16279 26.328 -17 -7 15
2883 2 13.9388 2.25711 26.313 5 6 5
2881 2 14.4844 2.16276 26.3419 5 6 5
4212 2 15.073 2.1129 26.3041 -17 -7 15
4211 2 16.0955 2.12265 26.4708 -17 -7 15
4210 2 17.0275 2.25069 26.905 -17 -7 15
4209 2 17.7866 2.4683 27.5757 -17 -7 15
2886 2 11.5517 3.99797 26.9277 5 6 5
2887 2 11.2237 4.90046 27.3168 5 6 5
3596 2 12.7442 5.52037 26.3324 -13 -10 -17
3597 2 13.3884 5.80866 27.091 -13 -10 -17
2897 2 17.6211 7.53722 26.0587 5 6 5
2896 2 17.2159 8.16417 26.7771 5 6 5
2895 2 16.5547 8.64367 27.4146 5 6 5
1737 2 19.1325 0.285662 27.823 -8 -12 7
1736 2 18.8433 0.622386 28.7592 -8 -12 7
4208 2 18.3065 2.73863 28.4302 -17 -7 15
4207 2 18.5424 3.02 29.399 -17 -7 15
3600 2 15.2169 4.88649 29.3075 -13 -10 -17
2888 2 11.1971 5.85534 27.7179 5 6 5
3598 2 14.0432 5.7941 27.8938 -13 -10 -17
3599 2 14.6659 5.47732 28.6588 -13 -10 -17
531 1 1.65442 7.94774 28.6417 -4 5 -17
530 1 0.62754 7.99039 28.5108 -4 5 -17
532 1 2.59634 7.78995 29.0434 -4 5 -17
2889 2 11.4732 6.78643 28.0789 5 6 5
2890 2 12.0256 7.61972 28.3509 5 6 5
2891 2 12.8026 8.2901 28.4933 5 6 5
2893 2 14.7284 8.96053 28.2888 5 6 5
2892 2 13.7322 8.74731 28.4774 5 6 5
2894 2 15.6992 8.92117 27.9289 5 6 5
4195 2 12.2135 0.281048 30.981 -17 -7 15
3583 2 12.2012 0.246757 30.9762 -13 -10 -17
1735 2 18.4134 1.17149 29.5254 -8 -12 7
1733 2 17.2319 2.65614 30.3 -8 -12 7
1734 2 17.8652 1.87378 30.0543 -8 -12 7
4206 2 18.4757 3.26973 30.4023 -17 -7 15
1732 2 16.5547 3.4381 30.2427 -8 -12 7
1731 2 15.8784 4.13928 29.89 -8 -12 7
3584 2 15.4698 4.47648 29.582 -13 -10 -17
1729 2 15.5335 4.45471 29.5918 -8 -12 7
1205 1 3.01985 5.90878 30.4327 -4 2 -22
1204 1 3.28655 5.00787 30.8694 -4 2 -22
2143 1 2.32801 7.37212 30.2609 8 15 -10
1190 1 2.35862 7.33858 30.2966 -4 2 -22
2145 1 2.09493 7.87106 30.325 8 15 -10
1206 1 2.61444 6.84763 30.2665 -4 2 -22
534 1 3.91307 7.12641 30.4667 -4 5 -17
533 1 3.37143 7.51368 29.673 -4 5 -17
2146 1 1.46118 8.6785 30.4658 8 15 -10
2147 1 0.622015 9.26106 30.6387 8 15 -10
4076 1 8.0646 12.6871 14.9095 5 -28 11
1419 1 11.4765 12.7786 15.1935 2 -16 -3
1420 1 10.8596 12.0251 14.8399 2 -16 -3
4075 1 8.24998 13.4555 15.5794 5 -28 11
4074 1 8.60147 14.0049 16.3844 5 -28 11
1418 1 11.9425 13.4716 15.8067 2 -16 -3
2319 7 29.9337 16.7117 15.0136 6 -5 10
2317 7 28.545 17.3761 16.3665 6 -5 10
2318 7 29.1351 17.0536 15.5783 6 -5 10
4182 1 3.00698 26.2914 16.5913 13 12 4
4183 1 3.45791 27.0862 16.1029 13 12 4
1248 1 9.13153 26.2791 16.5372 -7 -2 -15
1247 1 8.37399 26.9338 16.2709 -7 -2 -15
2437 7 28.7825 26.4962 16.1912 11 -18 -31
2436 7 29.1471 26.5328 15.2221 11 -18 -31
4185 1 4.91883 28.4954 15.8204 13 12 4
4184 1 4.11105 27.847 15.842 13 12 4
1245 1 6.64069 27.9822 16.5815 -7 -2 -15
1246 1 7.51541 27.5135 16.2837 -7 -2 -15
4186 1 5.81959 28.9633 16.028 13 12 4
4187 1 6.74321 29.199 16.434 13 12 4
603 2 16.3638 31.8854 16.1563 -3 -16 -14
604 2 17.1255 31.6943 15.4804 -3 -16 -14
4073 1 9.10308 14.293 17.244 5 -28 11
4072 1 9.72514 14.3013 18.0725 5 -28 11
1417 1 12.2303 14.031 16.6299 2 -16 -3
1416 1 12.3286 14.3957 17.5947 2 -16 -3
2316 7 28.2198 17.669 17.3056 6 -5 10
2315 7 28.1915 17.9244 18.3093 6 -5 10
2446 7 31.4843 20.4092 17.772 11 -18 -31
2445 7 30.7353 20.6972 18.4274 11 -18 -31
4180 1 2.80719 24.9218 18.1026 13 12 4
1250 1 10.0569 24.9198 17.7604 -7 -2 -15
4181 1 2.7874 25.5443 17.2746 13 12 4
1249 1 9.71235 25.5924 17.0517 -7 -2 -15
2439 7 28.3525 25.5786 17.9726 11 -18 -31
2438 7 28.5039 26.1669 17.1332 11 -18 -31
682 1 4.12001 28.7244 18.2846 2 3 -10
683 1 4.96844 28.7506 17.6905 2 3 -10
1243 1 6.19726 28.1773 16.8511 -7 -2 -15
668 1 6.1901 28.2078 16.8461 2 3 -10
684 1 5.79075 28.473 17.1246 2 3 -10
4190 1 8.95766 28.3276 18.2898 13 12 4
4188 1 7.61746 29.1719 16.9894 13 12 4
4189 1 8.37463 28.8755 17.6315 13 12 4
600 2 14.1584 33.7763 16.9735 -3 -16 -14
601 2 14.8254 32.9838 16.948 -3 -16 -14
602 2 15.5783 32.3312 16.6639 -3 -16 -14
3203 1 11.7903 12.9819 20.0704 2 -5 -4
4071 1 10.427 14.0366 18.7872 5 -28 11
3204 1 11.2108 13.5613 19.4365 2 -5 -4
4069 1 10.8178 13.7937 19.0964 5 -28 11
3188 1 10.8184 13.7769 19.1095 2 -5 -4
1414 1 11.9983 14.3898 19.6173 2 -16 -3
1415 1 12.2437 14.5224 18.6195 2 -16 -3
2314 7 28.4654 18.1382 19.2853 6 -5 10
2313 7 29.019 18.3099 20.1441 6 -5 10
2444 7 30.0208 21.2507 18.9339 11 -18 -31
672 1 5.89898 22.1913 20.1861 2 3 -10
671 1 6.88545 22.4318 19.9801 2 3 -10
670 1 7.76166 22.9564 19.8053 2 3 -10
1253 1 9.41837 23.4019 20.2893 -7 -2 -15
2443 7 29.3901 22.0155 19.2353 11 -18 -31
2442 7 28.885 22.9182 19.2938 11 -18 -31
1244 1 3.2258 24.3577 19.5155 -7 -2 -15
4177 1 3.26481 24.3549 19.5059 13 12 4
4179 1 3.05261 24.4899 19.0118 13 12 4
1260 1 3.43093 24.203 20.0068 -7 -2 -15
669 1 8.45527 23.7181 19.6953 2 3 -10
1252 1 9.90981 23.7897 19.4637 -7 -2 -15
4178 1 8.78333 24.1991 19.705 13 12 4
667 1 8.73067 24.1988 19.673 2 3 -10
4194 1 9.02923 24.6933 19.7572 13 12 4
1251 1 10.127 24.3058 18.592 -7 -2 -15
2440 7 28.358 24.7887 18.643 11 -18 -31
2441 7 28.5356 23.8728 19.0937 11 -18 -31
678 1 2.04004 26.0406 20.2436 2 3 -10
679 1 2.2328 26.9908 19.8782 2 3 -10
4193 1 9.35035 25.6748 19.6736 13 12 4
4192 1 9.45628 26.6603 19.3721 13 12 4
680 1 2.67897 27.8014 19.4122 2 3 -10
681 1 3.33035 28.3978 18.8704 2 3 -10
4191 1 9.3254 27.5692 18.8923 13 12 4
2269 2 1.1416 30.5792 20.2168 -10 6 5
4125 2 1.60118 30.9336 20.2317 9 8 1
4123 2 1.15082 30.6228 20.1423 9 8 1
4126 2 2.3278 31.6713 20.2668 9 8 1
4128 2 3.09445 33.5326 19.8821 9 8 1
4127 2 2.84288 32.5614 20.1412 9 8 1
1411 1 10.7254 12.571 21.6614 2 -16 -3
1410 1 10.3021 11.6424 21.8403 2 -16 -3
3202 1 12.1326 12.2115 20.6727 2 -5 -4
1413 1 11.6299 13.9998 20.5036 2 -16 -3
1412 1 11.1871 13.3779 21.2041 2 -16 -3
2312 7 29.8045 18.4429 20.8065 6 -5 10
2310 7 31.78 18.6233 21.3213 6 -5 10
2311 7 30.7528 18.5441 21.2115 6 -5 10
675 1 3.10656 23.2446 20.633 2 3 -10
674 1 3.92722 22.6181 20.5467 2 3 -10
673 1 4.8846 22.2556 20.3869 2 3 -10
1258 1 4.81242 23.5711 21.3823 -7 -2 -15
1257 1 5.76208 23.3048 21.6996 -7 -2 -15
1255 1 7.78694 23.0726 21.4851 -7 -2 -15
1256 1 6.78237 23.1277 21.7326 -7 -2 -15
1254 1 8.69085 23.1611 20.9865 -7 -2 -15
676 1 2.48988 24.0771 20.6206 2 3 -10
677 1 2.12583 25.0386 20.4928 2 3 -10
1259 1 4.0133 23.8856 20.8027 -7 -2 -15
2271 2 0.744443 30.2067 20.3214 -10 6 5
2095 2 31.545 19.1731 25.1052 15 -10 8
967 2 29.6184 18.0156 26.5015 7 2 4
968 2 30.44 17.3902 26.4155 7 2 4
969 2 31.4049 17.0135 26.4367 7 2 4
966 2 29.0143 18.8405 26.6691 7 2 4
965 2 28.6821 19.7976 26.8857 7 2 4
2094 2 31.1403 19.7692 25.8497 15 -10 8
2093 2 30.8888 20.1685 26.7721 15 -10 8
964 2 28.6512 20.8078 27.114 7 2 4
963 2 28.9239 21.7867 27.3157 7 2 4
962 2 29.4745 22.6533 27.455 7 2 4
961 2 30.2521 23.3363 27.5017 7 2 4
960 2 31.1852 23.7815 27.4341 7 2 4
3242 2 31.1353 20.1977 29.3674 -13 2 -10
2089 2 31.1405 20.1936 29.3328 15 -10 8
2091 2 30.975 20.3035 28.8152 15 -10 8
2092 2 30.8272 20.3477 27.7907 15 -10 8
2090 2 31.2617 14.8294 30.648 15 -10 8
3943 2 31.2548 14.8618 30.6621 -6 -6 -3
2106 2 31.7088 14.555 30.4686 15 -10 8
3827 2 0.861797 15.9773 31.0314 7 -9 8
3946 2 30.1155 15.8043 31.2222 -6 -6 -3
3945 2 30.8032 15.1334 30.8344 -6 -6 -3
3828 2 0.709317 17.0015 30.9963 7 -9 8
3829 2 0.428757 17.9701 31.2339 7 -9 8
3257 2 31.6208 20.2885 30.8694 -13 2 -10
3258 2 31.2268 20.2447 29.9122 -13 2 -10
2175 2 4.15615 30.2751 30.0372 1 5 2
2176 2 4.74242 29.5814 30.5356 1 5 2
2177 2 5.10185 28.9104 31.2385 1 5 2
2172 2 1.71299 32.0418 30.1669 1 5 2
2173 2 2.5614 31.5467 29.8374 1 5 2
2174 2 3.40383 30.9451 29.795 1 5 2
2171 2 0.943295 32.4017 30.7597 1 5 2
4197 2 12.2431 0.627276 31.413 -17 -7 15
4198 2 12.5264 1.2833 32.1633 -17 -7 15
3758 4 0.103013 1.87419 32.9635 4 -6 4
4199 2 13.0801 1.9127 32.7721 -17 -7 15
1202 1 3.26554 3.59245 32.3514 -4 2 -22
1203 1 3.37592 4.21552 31.531 -4 2 -22
535 1 4.17589 6.64572 31.3461 -4 5 -17
536 1 4.13995 6.09772 32.2247 -4 5 -17
537 1 3.81253 5.51464 33.016 -4 5 -17
3824 2 0.327318 13.4171 32.5369 7 -9 8
3825 2 0.678206 14.1065 31.8476 7 -9 8
3826 2 0.856525 14.9843 31.327 7 -9 8
3830 2 0.0614667 18.8016 31.7311 7 -9 8
3761 4 2.94556 1.28579 33.7884 4 -6 4
3762 4 3.7524 0.642809 33.6933 4 -6 4
3746 4 4.11107 0.242773 33.5565 4 -6 4
3759 4 1.04431 1.93971 33.3914 4 -6 4
3760 4 2.01805 1.73453 33.6798 4 -6 4
1200 1 2.44718 3.01577 34.1396 -4 2 -22
1201 1 2.95117 3.18395 33.2501 -4 2 -22
4200 2 13.8509 2.47514 33.1757 -17 -7 15
4202 2 15.739 3.27144 33.2089 -17 -7 15
4201 2 14.766 2.93639 33.3288 -17 -7 15
2160 1 0.501723 3.42134 34.0638 8 15 -10
540 1 1.53209 3.90588 34.1642 -4 5 -17
524 1 1.02517 3.68728 34.113 -4 5 -17
2144 1 0.994676 3.66523 34.1337 8 15 -10
538 1 3.22748 4.93192 33.6418 -4 5 -17
539 1 2.44214 4.38495 34.0387 -4 5 -17
1199 1 1.78521 3.09172 34.933 -4 2 -22
1197 1 0.181728 3.8818 35.9353 -4 2 -22
1198 1 1.01131 3.3934 35.5523 -4 2 -22
2074 2 0.484993 16.2759 35.1831 3 2 20
2071 2 1.78375 16.2557 36.0847 3 2 20
1154 2 1.78693 16.2289 36.1257 2 -13 -5
2073 2 1.36191 16.1988 35.7295 3 2 20
1139 1 14.1844 17.0771 36.3389 9 9 -11
1140 1 14.5057 17.7754 35.6442 9 9 -11
2039 2 5.2619 19.2024 36.3701 -12 -13 21
3336 1 11.9859 19.3161 36.406 6 8 -10
1141 1 14.7746 18.6638 35.1839 9 9 -11
1142 1 14.9854 19.662 35.0035 9 9 -11
1169 2 2.23532 16.4036 37.6318 2 -13 -5
1170 2 2.01245 16.2501 36.6317 2 -13 -5
2042 2 4.88043 16.3885 37.3914 -12 -13 21
2043 2 4.22709 15.7148 37.8303 -12 -13 21
3339 1 11.8991 16.5095 37.5116 6 8 -10
1138 1 13.8212 16.6317 37.201 9 9 -11
2041 2 5.28623 17.2419 36.9667 -12 -13 21
2040 2 5.41484 18.2063 36.6103 -12 -13 21
3338 1 11.6769 17.3756 36.9882 6 8 -10
3337 1 11.7032 18.3412 36.6136 6 8 -10
2045 2 2.4044 15.0955 38.5334 -12 -13 21
2047 2 0.410108 15.5351 38.7052 -12 -13 21
2046 2 1.38649 15.1885 38.7026 -12 -13 21
1168 2 2.17714 16.6787 38.629 2 -13 -5
2044 2 3.37841 15.2733 38.2282 -12 -13 21
3340 1 12.339 15.8242 38.1522 6 8 -10
3341 1 12.9461 15.3844 38.8674 6 8 -10
1135 1 13.216 16.5234 38.6577 9 9 -11
3342 1 13.6545 15.2325 39.608 6 8 -10
1137 1 13.4302 16.4793 38.1483 9 9 -11
2899 1 13.1704 16.5243 38.6693 7 8 -10
2901 1 12.9625 16.508 39.1829 7 8 -10
1167 2 1.83622 17.0345 39.5404 2 -13 -5
3382 2 4.20629 19.6196 39.5172 5 -14 -11
3343 1 14.3892 15.3847 40.3225 6 8 -10
2902 1 12.7673 16.6002 40.1963 7 8 -10
3344 1 15.0728 15.8292 40.9617 6 8 -10
3345 1 15.6325 16.5279 41.4833 6 8 -10
1166 2 1.23663 17.4224 40.2911 2 -13 -5
4 2 1.77654 16.826 41.1129 8 -3 9
1165 2 0.426031 17.7911 40.8206 2 -13 -5
3 2 2.63465 17.2385 40.7043 8 -3 9
1 2 3.12247 17.4829 40.606 8 -3 9
3384 2 3.50557 17.8847 40.3534 5 -14 -11
3368 2 3.15235 17.5396 40.6054 5 -14 -11
2903 1 12.8298 16.8576 41.1979 7 8 -10
3383 2 3.98723 18.6819 39.8996 5 -14 -11
5 2 1.04657 16.5164 41.7798 8 -3 9
6 2 0.499285 16.3532 42.6442 8 -3 9
2904 1 13.1338 17.2729 42.0971 7 8 -10
2905 1 13.6414 17.8244 42.8124 7 8 -10
3347 1 16.1511 18.4246 42.0607 6 8 -10
3346 1 16.0068 17.4194 41.8556 6 8 -10
3332 1 15.8786 19.9821 42.0489 6 8 -10
1136 1 15.8882 20.0051 42.0126 9 9 -11
3348 1 16.0418 19.4543 42.0959 6 8 -10
8 2 0.0843468 16.569 44.6395 8 -3 9
7 2 0.172611 16.3661 43.6274 8 -3 9
2906 1 14.2958 18.4781 43.2792 7 8 -10
2908 1 15.7585 19.9129 43.3254 7 8 -10
2907 1 15.0272 19.1905 43.4553 7 8 -10
9 2 0.230567 16.9585 45.5884 8 -3 9
10 2 0.585974 17.5141 46.3874 8 -3 9
3369 2 0.355347 19.8985 45.0796 5 -14 -11
72 2 1.26502 19.3093 45.3544 -35 -33 0
3367 2 0.783827 19.5584 45.1697 5 -14 -11
56 2 0.801318 19.5561 45.177 -35 -33 0
70 2 3.26771 19.0279 45.6861 -35 -33 0
71 2 2.23644 19.0339 45.5866 -35 -33 0
68 2 5.14593 19.833 45.5312 -35 -33 0
69 2 4.26714 19.2998 45.6611 -35 -33 0
905 10 16.3727 19.5837 45.2613 -5 4 12
11 2 1.1062 18.2002 46.9638 8 -3 9
12 2 1.73186 18.9692 47.2648 8 -3 9
13 2 2.39395 19.7661 47.263 8 -3 9
4256 2 6.51298 0.658871 53.8723 1 4 2
4257 2 7.03907 1.48273 54.2157 1 4 2
4258 2 7.40161 2.24891 54.8115 1 4 2
3664 5 3.43706 19.9969 53.3721 19 17 12
3662 5 4.90486 19.879 54.7975 19 17 12
3663 5 4.22963 19.8154 54.0143 19 17 12
755 2 7.33732 0.890974 56.7067 -26 0 33
753 2 6.49844 2.76051 56.673 -26 0 33
754 2 6.92462 1.826 56.5368 -26 0 33
4259 2 7.58289 2.8793 55.6135 1 4 2
4260 2 7.58177 3.30821 56.5566 1 4 2
756 2 7.68341 0.0293383 57.1663 -26 0 33
751 2 5.81937 4.33925 57.7894 -26 0 33
752 2 6.11315 3.62062 57.1033 -26 0 33
4261 2 7.41371 3.48828 57.563 1 4 2
4263 2 6.71187 3.02815 59.4327 1 4 2
750 2 5.65941 4.8622 58.6694 -26 0 33
4262 2 7.10937 3.39483 58.5489 1 4 2
749 2 5.66336 5.15312 59.6638 -26 0 33
4250 2 5.3442 0.114136 60.8291 1 4 2
1784 2 5.33368 0.0863575 60.8662 0 6 8
4265 2 5.84752 1.59832 60.6195 1 4 2
4266 2 5.49017 0.648993 60.8305 1 4 2
1785 2 10.9848 1.01172 61.65 0 6 8
1786 2 11.5531 0.378235 61.0591 0 6 8
4264 2 6.27279 2.41338 60.1417 1 4 2
747 2 6.20729 5.00055 61.6338 -26 0 33
748 2 5.84637 5.19679 60.6826 -26 0 33
739 2 10.6145 1.27071 61.9906 -26 0 33
741 2 10.3016 1.48373 62.3957 -26 0 33
1783 2 10.6164 1.24561 61.9919 0 6 8
743 2 8.88151 2.66062 63.2891 -26 0 33
744 2 8.11343 3.35591 63.2977 -26 0 33
742 2 9.62843 2.01312 62.9788 -26 0 33
746 2 6.72873 4.5936 62.4312 -26 0 33
745 2 7.37869 4.02432 63.003 -26 0 33
2685 5 6.40796 19.9129 63.3458 -11 10 8
541 2 5.11066 28.0141 32.572 -7 24 13
2178 2 5.19432 28.3068 32.0755 1 5 2
2162 2 5.12792 28.0259 32.5488 1 5 2
2170 2 0.329824 32.6104 31.5682 1 5 2
543 2 5.25115 27.7458 33.0364 -7 24 13
544 2 5.65391 27.4304 33.9374 -7 24 13
781 2 1.52877 29.6935 34.5971 -8 -9 -9
780 2 1.88561 30.2952 33.8329 -8 -9 -9
778 2 2.82627 31.9453 33.0633 -8 -9 -9
779 2 2.32544 31.0715 33.3062 -8 -9 -9
777 2 3.36054 32.8309 33.1246 -8 -9 -9
558 2 4.11969 33.6578 33.329 -7 24 13
775 2 3.64884 33.2781 33.2804 -8 -9 -9
542 2 3.69363 33.3065 33.2793 -7 24 13
986 2 6.63431 32.5583 34.2575 1 24 15
985 2 6.67216 33.3255 33.5622 1 24 15
2037 2 4.22019 20.9673 36.3734 -12 -13 21
2038 2 4.84868 20.1486 36.2834 -12 -13 21
3335 1 12.5099 20.2091 36.3685 6 8 -10
1144 1 15.237 21.6251 35.5355 9 9 -11
1143 1 15.1379 20.6798 35.1232 9 9 -11
1145 1 15.2924 22.4125 36.2066 9 9 -11
546 2 6.81389 27.628 35.6153 -7 24 13
545 2 6.19545 27.3874 34.8196 -7 24 13
547 2 7.44032 28.1374 36.2646 -7 24 13
782 2 1.26935 29.3274 35.531 -8 -9 -9
2166 2 0.382088 32.0859 35.4526 1 5 2
2165 2 1.05282 31.7591 36.1715 1 5 2
989 2 4.94315 31.103 36.2894 1 24 15
988 2 5.73623 31.409 35.6972 1 24 15
987 2 6.31509 31.9044 34.995 1 24 15
553 2 8.1552 33.5217 35.8057 -7 24 13
552 2 8.56695 32.7376 36.3436 -7 24 13
2088 2 3.51558 21.7211 36.8166 3 2 20
2035 2 3.81837 21.3288 36.4969 -12 -13 21
2072 2 3.80803 21.3796 36.4923 3 2 20
3333 1 14.1137 21.43 36.7391 6 8 -10
3334 1 13.2377 20.9366 36.4885 6 8 -10
2916 1 15.1418 21.7255 37.0984 7 8 -10
2900 1 14.6488 21.5498 36.9152 7 8 -10
3331 1 14.6181 21.5802 36.9133 6 8 -10