LAMMPS input file for bananas

4320 atoms

2 atom types

0 63.4960420787 xlo xhi
0 63.4960420787 ylo yhi
0 63.4960420787 zlo zhi

Masses

 1 1
 2 1

Atoms

1 1 1 52.930706165 57.6254580655 5.3575642435
2 1 1 54.6892724611 53.6485010861 1.95032946621
3 1 2 53.1279456868 57.5940421982 5.87475976009
4 1 2 53.4237402081 57.3121081743 6.82684632049
5 1 2 53.6167175994 56.7587386086 7.68124193228
6 1 2 53.7073649347 55.978626989 8.35700737434
7 1 2 53.7054963988 55.0371337352 8.78948508808
8 1 2 53.6293587514 54.0143287719 8.93619254109
9 1 2 53.5039681828 52.9976933684 8.78069439644
10 1 2 53.3588301555 52.0741464556 8.33410054969
11 1 2 53.2252500602 51.3221221968 7.63405349163
12 1 2 53.1334798129 50.8044209241 6.74129729584
13 1 2 53.1099604738 50.5624850556 5.73414095871
14 1 2 53.174912215 50.61262173 4.70132074378
15 1 2 53.3404913065 50.9445164542 3.73391210845
16 1 2 53.6096821038 51.522173242 2.91702841945
17 1 2 53.9760250327 52.2871955519 2.32206309701
18 1 2 54.4242053617 53.164108976 2.00018229534
19 2 1 50.231848406 38.1320506501 42.6491988646
20 2 1 54.1304198337 35.1868911154 45.2270210461
21 2 2 49.9705214341 38.5030531801 42.967706203
22 2 2 49.4553148364 39.01307429 43.7079025555
23 2 2 48.9587817517 39.2501769769 44.5857904885
24 2 2 48.5405396353 39.1992692615 45.5323273064
25 2 2 48.25306993 38.8715105428 46.4722131516
26 2 2 48.1369345227 38.3032944487 47.3307543847
27 2 2 48.2170786372 37.5529316544 48.0406717101
28 2 2 48.5005571432 36.6953350198 48.5482325045
29 2 2 48.9758915244 35.8151914827 48.8181484014
30 2 2 49.614116114 34.9992430709 48.8367917314
31 2 2 50.3714182383 34.3283805982 48.6134376481
32 2 2 51.1931316243 33.8702706827 48.1794187226
33 2 2 52.018719085 33.6731881155 47.5852690632
34 2 2 52.7872903214 33.7616157427 46.8961182667
35 2 2 53.4431519115 34.1340129192 46.1857550294
36 2 2 53.9408836158 34.7629559344 45.5299015052
37 3 1 37.6132760083 5.8448906024 38.7659088277
38 3 1 39.0422827351 3.37885075764 43.4981998501
39 3 2 37.4172051459 6.36053315481 38.8211407307
40 3 2 36.9112872282 7.22508821615 39.0857945001
41 3 2 36.2746540002 7.89776965225 39.5501734721
42 3 2 35.5765174588 8.32421030206 40.1859436766
43 3 2 34.8916954639 8.47248719406 40.949149291
44 3 2 34.2937922898 8.3360312398 41.7842190953
45 3 2 33.8484897929 7.93422598872 42.6290316412
46 3 2 33.6075606853 7.31064086948 43.420577455
47 3 2 33.6041495914 6.52905995291 44.1007021836
48 3 2 33.8497520031 5.66766820453 44.6214072079
49 3 2 34.333166497 4.81192513384 44.9492245889
50 3 2 35.0215157139 4.04677538846 45.0682675805
51 3 2 35.8632430426 3.44890627657 44.9816786643
52 3 2 36.7928118666 3.07975792367 44.7113431207
53 3 2 37.7366790522 2.97992316942 44.2958942442
54 3 2 38.619998208 3.16544763878 43.7871920215
55 4 1 25.6687466552 10.8573486069 41.2886797696
56 4 1 29.7346579653 7.13166178948 41.6136628741
57 4 2 25.2169247359 10.7365936999 41.5864326767
58 4 2 24.3895201688 10.3028517065 42.034450061
59 4 2 23.6569718229 9.62785261895 42.3194047308
60 4 2 23.0937546104 8.76544516793 42.4311623756
61 4 2 22.7589093634 7.78655985542 42.3753751305
62 4 2 22.6906614198 6.77274382916 42.1729663998
63 4 2 22.9029364858 5.80872807812 41.8582237441
64 4 2 23.3840913448 4.97470442926 41.4756736612
65 4 2 24.0979751062 4.33901627688 41.0760231146
66 4 2 24.9872242615 3.95192926488 40.7115377293
67 4 2 25.9784912156 3.84104970766 40.43127792
68 4 2 26.9891297235 4.00880834836 40.276627165
69 4 2 27.9347278749 4.43223880311 40.2775200132
70 4 2 28.7368020142 5.06507088555 40.4497136298
71 4 2 29.329950316 5.84194801061 40.7933515728
72 4 2 29.6678139863 6.68438427263 41.292950708
73 5 1 38.9487141666 3.85644340982 50.858185797
74 5 1 36.1371970034 0.632569694137 54.3538975368
75 5 2 38.8889779598 4.40103369579 50.943242214
76 5 2 38.5479662356 5.36657744241 51.1009960999
77 5 2 37.9368297324 6.18782683346 51.2607196841
78 5 2 37.1109134179 6.79086020614 51.4270416732
79 5 2 36.1451388655 7.12164570447 51.6039893467
80 5 2 35.1271753531 7.15096613857 51.7946214814
81 5 2 34.1494490429 6.8770820534 52.000749552
82 5 2 33.3007185837 6.32589027548 52.2227726201
83 5 2 32.6579849972 5.54856348634 52.4596409608
84 5 2 32.2794732408 4.61688596936 52.7089517423
85 5 2 32.199325158 3.61671066425 52.9671680374
86 5 2 32.4244875414 2.640133901 53.2299412053
87 5 2 32.9340789502 1.77710106559 53.4925072583
88 5 2 33.6812929985 1.10720831847 53.750121087
89 5 2 34.5976646315 0.692447617248 53.9984889635
90 5 2 35.599310533 0.571556315453 54.234159904
91 6 1 9.84877714902 49.4779065675 27.1326337574
92 6 1 4.86679756965 47.7980312592 25.4367889883
93 6 2 9.94730877689 49.4076541903 27.6736861669
94 6 2 9.92416055897 49.3848755844 28.709251378
95 6 2 9.627139703 49.490257371 29.6962282274
96 6 2 9.07481599126 49.6972937435 30.5480054689
97 6 2 8.30902937903 49.9702133514 31.1902949389
98 6 2 7.39107639439 50.2672397634 31.5679027245
99 6 2 6.39612312357 50.5443992774 31.6497599408
100 6 2 5.4063540231 50.7595290061 31.4317545767
101 6 2 4.50348102622 50.8761199112 30.9371062941
102 6 2 3.76129571858 50.8666445048 30.2142500172
103 6 2 3.23894343244 50.7150659065 29.3324212193
104 6 2 2.97553230773 50.4182995618 28.3753452938
105 6 2 2.98656868957 49.9864943915 27.4336062087
106 6 2 3.26254376643 49.4421077441 26.5963900202
107 6 2 3.76980027281 48.8178584692 25.9433558016
108 6 2 4.4536002591 48.1537446811 25.537374932
109 7 1 17.0289030462 32.9315131714 15.8034256864
110 7 1 12.9011709368 31.7716190392 12.3199698884
111 7 2 17.2349759311 32.4944256153 16.075216088
112 7 2 17.3939763117 31.6357626599 16.6327704075
113 7 2 17.2468467896 30.7803147101 17.1984661917
114 7 2 16.8064944756 29.9924438484 17.7071894523
115 7 2 16.1125529541 29.3303526859 18.0990190945
116 7 2 15.227769788 28.8407793507 18.3246885642
117 7 2 14.2322872459 28.5547374319 18.3500763629
118 7 2 13.2163375489 28.4846891739 18.1593161313
119 7 2 12.2720184445 28.6234095764 17.7562428252
120 7 2 11.4848987429 28.9446449334 17.1640431697
121 7 2 10.9262189493 29.405505789 16.4231422512
122 7 2 10.6463978814 29.950376196 15.5875188786
123 7 2 10.6704371297 30.5159829612 14.7197855596
124 7 2 10.995642229 31.0371628277 13.8854815375
125 7 2 11.5918682515 31.452801932 13.1470990647
126 7 2 12.4042674369 31.7114061685 12.5583874004
127 8 1 34.3886330032 31.8744552094 37.3647552294
128 8 1 29.0212327818 31.269563848 36.2058279817
129 8 2 34.6018940911 32.3688293379 37.2324846076
130 8 2 34.8994308228 33.250595375 36.777061112
131 8 2 35.0300531804 34.0170140392 36.0922324896
132 8 2 34.9674140515 34.6100509416 35.2449818873
133 8 2 34.7027815917 34.9874749777 34.3170967816
134 8 2 34.2458351089 35.1267075795 33.3977142684
135 8 2 33.6237828199 35.0268806914 32.575196455
136 8 2 32.8788818947 34.7089158915 31.9290764902
137 8 2 32.0645868281 34.2136174455 31.5228093304
138 8 2 31.2406772054 33.597953107 31.39798799
139 8 2 30.4678089529 32.9298616589 31.5705524489
140 8 2 29.8019857126 32.2820604751 32.0293367666
141 8 2 29.2894542595 31.7254175262 32.7370868271
142 8 2 28.9624892322 31.3224919531 33.6338559528
143 8 2 28.8364513854 31.1218319691 34.642468883
144 8 2 28.9083874984 31.1535498192 35.6755560937
145 9 1 16.1660575062 55.2168874471 58.94709193
146 9 1 11.4679745155 57.4941862199 57.1415677475
147 9 2 16.3982876422 54.8532787812 58.5988973148
148 9 2 16.6163800212 54.0804380937 57.9442195336
149 9 2 16.5344669646 53.255648091 57.3225590847
150 9 2 16.1567107304 52.4623412037 56.7735468614
151 9 2 15.5142388915 51.7810802611 56.3301920651
152 9 2 14.6623071406 51.2822154036 56.0158735054
153 9 2 13.6752628816 51.0194718563 55.8422086838
154 9 2 12.6397686623 51.0250530178 55.8079948893
155 9 2 11.6469031151 51.3067052067 55.8993188227
156 9 2 10.7838593826 51.8470116053 56.0908247564
157 9 2 10.1259976962 52.604979756 56.3480256412
158 9 2 9.72997649204 53.5197779145 56.6304465087
159 9 2 9.62858814621 54.5162797 56.8953136564
160 9 2 9.82777003727 55.5119116648 57.1014533566
161 9 2 10.30606337 56.4241796431 57.2130447314
162 9 2 11.0165690873 57.1781878733 57.2028847301
163 10 1 41.4445231307 20.8325628145 15.4646308107
164 10 1 44.338348932 16.7984399556 17.8873598613
165 10 2 41.0756717331 21.0848964355 15.792743563
166 10 2 40.3187605108 21.3363369108 16.4540400927
167 10 2 39.5429803448 21.2829989807 17.1387080491
168 10 2 38.8285133882 20.9304385864 17.8010434229
169 10 2 38.2499532585 20.3114849969 18.39737776
170 10 2 37.8695060298 19.4832485088 18.8900584244
171 10 2 37.7313203142 18.5219149956 19.2508805353
172 10 2 37.8574632348 17.5158017691 19.4636577667
173 10 2 38.2459090658 16.5573076921 19.5256976876
174 10 2 38.8707238723 15.7344912691 19.4480471701
175 10 2 39.6844293189 15.1230443493 19.2544854961
176 10 2 40.6223301933 14.7793930164 18.9793569399
177 10 2 41.6084112019 14.7355545024 18.6644403791
178 10 2 42.5622655607 14.9962189019 18.3551412613
179 10 2 43.4064238585 15.538321683 18.0963530195
180 10 2 44.0734151872 16.3131459573 17.9283651552
181 11 1 10.8136747151 53.8953619534 38.4568061617
182 11 1 13.7551977844 49.7527200383 40.6256655527
183 11 2 10.945136584 54.3994834497 38.6464397083
184 11 2 11.1666226916 55.2393251838 39.2112934744
185 11 2 11.3551061027 55.8781982303 40.0048709724
186 11 2 11.5125080744 56.2565706875 40.9564532937
187 11 2 11.6435828539 56.3386545865 41.9809198118
188 11 2 11.7554843416 56.1156678683 42.986506701
189 11 2 11.8571140323 55.6066348454 43.883170963
190 11 2 11.9583096674 54.8566521864 44.590797606
191 11 2 12.0689485516 53.9327784752 45.0465019117
192 11 2 12.1980472624 52.9179220004 45.2103612097
193 11 2 12.3529398137 51.9032838863 45.0690537221
194 11 2 12.5386091796 50.9800453541 44.6370728076
195 11 2 12.7572331099 50.2310567976 43.9554059311
196 11 2 13.0079856339 49.723286191 43.0877987654
197 11 2 13.2871123455 49.5017151369 42.1149449439
198 11 2 13.5882726072 49.5852389138 41.1271310512
199 12 1 40.0276978325 12.6106459762 17.1244230196
200 12 1 35.3591418828 9.71170709988 16.5598614221
201 12 2 40.4421488374 12.4531580511 16.7915424014
202 12 2 41.166347419 11.944641253 16.2526573564
203 12 2 41.7593097893 11.1959030301 15.851114442
204 12 2 42.1575887646 10.2710421513 15.6072779726
205 12 2 42.3154820326 9.25021049495 15.5271377418
206 12 2 42.2091977954 8.2223074194 15.6017630685
207 12 2 41.8390233289 7.27687682382 15.8081168048
208 12 2 41.2292987978 6.4959454613 16.11115511
209 12 2 40.4261987153 5.94654641949 16.4670216038
210 12 2 39.4935232588 5.67460923387 16.8270447575
211 12 2 38.5068830551 5.70077353329 17.1421741739
212 12 2 37.5468074733 6.018507793 17.3674514001
213 12 2 36.6914045883 6.59470466568 17.46610777
214 12 2 36.0092418383 7.37269862764 17.4129157704
215 12 2 35.5530962863 8.27743088986 17.1964884608
216 12 2 35.3551441319 9.22229080598 16.8203173632
217 13 1 22.1362096962 5.63673740298 52.7971087406
218 13 1 23.7237038608 9.78554090791 49.5130133072
219 13 2 22.4644936966 5.19013577602 52.7845313846
220 13 2 23.0519488956 4.37612707244 52.5281406068
221 13 2 23.5732219013 3.66086599703 51.9895070962
222 13 2 23.9982203965 3.11754814476 51.2164404745
223 13 2 24.3056272282 2.8036969454 50.2781183147
224 13 2 24.4848434094 2.75592055661 49.2587807905
225 13 2 24.5369541881 2.9865751282 48.2500524095
226 13 2 24.47463013 3.48263857214 47.3425906844
227 13 2 24.3209722304 4.20689749108 46.6178229427
228 13 2 24.1074063202 5.10133907999 46.1405244437
229 13 2 23.8708186852 6.09243883837 45.9529142865
230 13 2 23.6501939799 7.09786213191 46.0708072524
231 13 2 23.4830618805 8.03396877434 46.4821723294
232 13 2 23.4020763552 8.82343660687 47.1482293069
233 13 2 23.432039342 9.40230920633 48.0069834884
234 13 2 23.5876401188 9.72582534214 48.9788763422
235 14 1 17.5646650009 11.4264183606 39.6559842644
236 14 1 20.9322823032 9.83593413876 35.5758488859
237 14 2 17.1046355274 11.1219498107 39.7112416056
238 14 2 16.2236342081 10.5918877906 39.5834881664
239 14 2 15.391264343 10.1398756893 39.1636126143
240 14 2 14.6899646031 9.7894274592 38.4862539766
241 14 2 14.1902269674 9.55479977734 37.6095201758
242 14 2 13.9441715681 9.43969258734 36.6096916473
243 14 2 13.9807960793 9.43691185941 35.5742685821
244 14 2 14.3033326571 9.52902530699 34.5939955181
245 14 2 14.8889533367 9.68995129304 33.754590218
246 14 2 15.6908507406 9.88733610156 33.1289307243
247 14 2 16.6425044461 10.0855028923 32.7704127205
248 14 2 17.6637441437 10.2487035495 32.7080826573
249 14 2 18.6680569467 10.344377027 32.9439902463
250 14 2 19.5704728097 10.3461172005 33.4530016343
251 14 2 20.2953093211 10.2360797153 34.1850902866
252 14 2 20.7830699523 10.0066084516 35.0698967722
253 15 1 57.9623099796 23.9541107315 50.3704703815
254 15 1 54.6707342028 20.1959435875 52.7283719242
255 15 2 57.8520812648 24.4799258107 50.5074000024
256 15 2 57.4260050473 25.4034495456 50.7049170371
257 15 2 56.7451559398 26.1748633063 50.8266352111
258 15 2 55.8670627208 26.7221735626 50.8800561174
259 15 2 54.8672324422 26.9938132201 50.8789064619
260 15 2 53.8322681636 26.9633418223 50.8418869118
261 15 2 52.8519753147 26.6318555283 50.7909675792
262 15 2 52.0111761706 26.0278872001 50.7493855041
263 15 2 51.3819785279 25.2048057091 50.7395266605
264 15 2 51.0172032721 24.2359515056 50.7808855348
265 15 2 50.9455698948 23.2079518334 50.888288255
266 15 2 51.1690787888 22.2128248873 51.0705412293
267 15 2 51.6628289177 21.3395926012 51.3296284653
268 15 2 52.377287479 20.6661665365 51.6605307328
269 15 2 53.2428046864 20.2522464514 52.0516830537
270 15 2 54.1759621617 20.1338788279 52.4860288183
271 16 1 17.3992461214 23.9434492664 9.68580007329
272 16 1 14.0865517011 19.6346401805 10.6748455723
273 16 2 17.8291465346 23.9919997345 10.0325133192
274 16 2 18.4670212237 24.0602664441 10.8460890984
275 16 2 18.8434949246 24.078462948 11.8111727481
276 16 2 18.9292696375 24.0265652065 12.8423853034
277 16 2 18.7215437985 23.8909380831 13.8483203264
278 16 2 18.2442676347 23.6655781508 14.7398753586
279 16 2 17.5459601644 23.3526608881 15.4383733721
280 16 2 16.6952868192 22.9623423902 15.8827339702
281 16 2 15.7748007726 22.5118336681 16.0350407023
282 16 2 14.8734184396 22.0238319108 15.8839970472
283 16 2 14.0783149824 21.5244516973 15.4459560606
284 16 2 13.466978528 21.0408447223 14.7634298381
285 16 2 13.1001473321 20.5987249922 13.9012146509
286 16 2 13.0162736496 20.2200250618 12.940484939
287 16 2 13.2280189145 19.9208969406 11.9713944782
288 16 2 13.7210996837 19.7102398805 11.0848591043
289 17 1 38.2998559955 14.4657724723 31.749215758
290 17 1 33.2992249546 12.7871730465 33.3905518668
291 17 2 38.3789666543 15.0142916948 31.7650193737
292 17 2 38.3240398377 16.0450225223 31.6754257508
293 17 2 38.0029184924 17.0044571762 31.4522302362
294 17 2 37.4355133848 17.8099731298 31.1318468668
295 17 2 36.664183388 18.3929771349 30.7595480927
296 17 2 35.7498745835 18.7051573124 30.3853383146
297 17 2 34.7665651892 18.7228866512 30.0593961159
298 17 2 33.7945226424 18.4493765474 29.8275006192
299 17 2 32.9129874371 17.9143840936 29.7268588416
300 17 2 32.1929505652 17.1714997999 29.7827143745
301 17 2 31.6906828772 16.293262962 30.0060464977
302 17 2 31.4426061443 15.3645498981 30.3925694474
303 17 2 31.4619733119 14.4748376995 30.9231230523
304 17 2 31.7376605283 13.7100486329 31.5654191317
305 17 2 32.2351810547 13.1447185556 32.276984477
306 17 2 32.8998286389 12.8352031707 33.0090321711
307 18 1 27.8072636178 41.0515508793 37.1825846511
308 18 1 26.8944709973 36.9778717228 33.5645826026
309 18 2 27.6792124319 41.5591495439 37.0000248596
310 18 2 27.5701628381 42.4447073907 36.4733888399
311 18 2 27.6251474745 43.1746608373 35.7401803657
312 18 2 27.8231803638 43.6790667344 34.8571131673
313 18 2 28.1302370625 43.9085399888 33.8945601971
314 18 2 28.5023558987 43.838754883 32.9301393232
315 18 2 28.8896449601 43.472662299 32.0416386682
316 18 2 29.2408296093 42.8402207536 31.2999264295
317 18 2 29.5079260294 41.9956657596 30.7624914328
318 18 2 29.6506148208 41.0125664036 30.4682031792
319 18 2 29.6399160069 39.9771197205 30.433768994
320 18 2 29.4608304811 38.9802940643 30.6522111986
321 18 2 29.1137071358 38.1095375855 31.0935031075
322 18 2 28.6142110613 37.4408075659 31.7073058802
323 18 2 27.9918957152 37.0316471158 32.427556772
324 18 2 27.2875092031 36.9159402729 33.1784905769
325 19 1 58.4072524564 54.3119948054 43.4351687792
326 19 1 54.0412814582 57.359185595 41.9617657127
327 19 2 58.4536837967 53.8270590761 43.1704745081
328 19 2 58.315546758 52.8949472598 42.7397359196
329 19 2 57.8923487638 52.0080717172 42.4113988357
330 19 2 57.2170292537 51.2519649635 42.197632263
331 19 2 56.3455078698 50.7002402887 42.1001624123
332 19 2 55.3515875305 50.4078821023 42.1101153589
333 19 2 54.3202274919 50.4062342517 42.2088258774
334 19 2 53.3397995385 50.7001431141 42.3695387267
335 19 2 52.4940331314 51.2675158624 42.5598473193
336 19 2 51.8543836919 52.0613341671 42.7446474946
337 19 2 51.4735196303 53.0139397916 42.8893371694
338 19 2 51.3805217615 54.0432014593 42.9629702258
339 19 2 51.5782326664 55.0600009003 42.9410771662
340 19 2 52.042997598 55.9763557433 42.8078954437
341 19 2 52.7268205487 56.7134388737 42.5578061753
342 19 2 53.5617389578 57.2087633142 42.1958462883
343 20 1 23.9448963133 61.9178457502 40.9986120408
344 20 1 27.1095560177 58.4009520997 43.8506953262
345 20 2 23.5524875452 62.1727804941 41.2959421993
346 20 2 22.7683162122 62.4306042727 41.922082943
347 20 2 21.9888991363 62.3872062055 42.6033139176
348 20 2 21.2944138995 62.0497221014 43.294142946
349 20 2 20.7572967736 61.4520929258 43.9482030141
350 20 2 20.4356403476 60.6519711721 44.5224785003
351 20 2 20.3678985439 59.7254659908 44.9812259343
352 20 2 20.5693816454 58.7602060441 45.2992319191
353 20 2 21.0308608047 57.8473523876 45.4641112645
354 20 2 21.7194092284 57.0732893834 45.4774358642
355 20 2 22.5814033668 56.5117509968 45.3545914222
356 20 2 23.5474105568 56.2171001422 45.1233750862
357 20 2 24.5385176235 56.2193736486 44.8214618128
358 20 2 25.4735236055 56.5215444834 44.4929703954
359 20 2 26.2763410054 57.0992507738 44.184442154
360 20 2 26.8829309614 57.9030163268 43.9405988187
361 21 1 7.22964621281 26.1321746523 3.85673298686
362 21 1 7.83588062928 21.547136242 6.87797340605
363 21 2 6.72333261821 26.2059906893 3.64323983793
364 21 2 5.80533558965 26.12244278 3.17021635691
365 21 2 4.98807723573 25.7533525321 2.65126435236
366 21 2 4.33483933919 25.1261074622 2.1479812472
367 21 2 3.89395365645 24.2916252088 1.72053628604
368 21 2 3.69439660723 23.3197125261 1.42218626937
369 21 2 3.74314815131 22.2927025843 1.29442133854
370 21 2 4.02455558385 21.2979505216 1.36318326025
371 21 2 4.50176023764 20.4198712568 1.63650090386
372 21 2 5.12005705205 19.732245295 2.10375843141
373 21 2 5.81188079312 19.2914938316 2.73666290287
374 21 2 6.50296444406 19.1315361115 3.49182310202
375 21 2 7.11910844529 19.2606977804 4.31470452982
376 21 2 7.59294378603 19.6609520244 5.14460007823
377 21 2 7.87007250953 20.2895626657 5.92016332086
378 21 2 7.91402594146 21.0829794517 6.58500007581
379 22 1 40.0687363004 18.5815080445 40.0771022287
380 22 1 37.4905156226 14.9752754686 43.3734419877
381 22 2 39.9821590591 19.1148366211 40.2013865745
382 22 2 39.5940357448 20.0474024875 40.4318886549
383 22 2 38.943758806 20.8217069471 40.657814567
384 22 2 38.0905265986 21.3667391531 40.877779805
385 22 2 37.1120363089 21.6323858115 41.0909431627
386 22 2 36.0974020626 21.5939988744 41.297083407
387 22 2 35.1390324102 21.2546421432 41.4966194428
388 22 2 34.3242075351 20.6448120121 41.690572131
389 22 2 33.7271238978 19.8196578024 41.8804712397
390 22 2 33.4021314271 18.8539550498 42.0682160099
391 22 2 33.3787796689 17.835289914 42.2559020449
392 22 2 33.6591244247 16.8560759344 42.4456303014
393 22 2 34.2175403702 16.005130783 42.6393155932
394 22 2 35.0030567356 15.3595807709 42.838512061
395 22 2 35.9440031546 14.9778309911 43.0442715162
396 22 2 36.954542227 14.8942418507 43.2570475717
397 23 1 12.0622506362 10.4615681495 55.8715870565
398 23 1 17.5579227677 10.5111284945 55.3120134182
399 23 2 11.8706954345 10.7258353244 56.3197511482
400 23 2 11.6725455427 11.0887535 57.2697390583
401 23 2 11.7073202842 11.2656631445 58.2900055461
402 23 2 11.9836502889 11.2555724068 59.2884993702
403 23 2 12.4881490699 11.0745340209 60.1751538091
404 23 2 13.1866331662 10.754182142 60.8700960024
405 23 2 14.0272378737 10.3388489778 61.3109271487
406 23 2 14.9451445747 9.88152402619 61.458409989
407 23 2 15.8684887811 9.43902422451 61.3000451786
408 23 2 16.724910391 9.06681523712 60.8512105687
409 23 2 17.448149118 8.81395590857 60.1537595561
410 23 2 17.9840839397 8.71862668101 59.2722062586
411 23 2 18.2956660842 8.80464954891 58.2878452249
412 23 2 18.3662959261 9.07931674797 57.2913416542
413 23 2 18.2013359986 9.53272608729 56.3744675055
414 23 2 17.8276222128 10.1386835076 55.6217367288
415 24 1 10.4503916743 15.0512651787 26.5040410265
416 24 1 8.02800884825 19.7760880405 28.0291972253
417 24 2 10.8616938748 15.1076421747 26.1365716778
418 24 2 11.4717074993 15.3408464738 25.332240189
419 24 2 11.8343905354 15.7346009673 24.4451841448
420 24 2 11.9251424983 16.2691676509 23.5623180433
421 24 2 11.7441486943 16.9119738656 22.7701744803
422 24 2 11.3163633297 17.6205812085 22.1470169348
423 24 2 10.689235002 18.3465536798 21.7557062619
424 24 2 9.92838188697 19.0398724944 21.637971094
425 24 2 9.11161081737 19.6534951611 21.8106043875
426 24 2 8.32182539805 20.1476432792 22.2639327894
427 24 2 7.63946956397 20.4934282341 22.9626983379
428 24 2 7.13519533052 20.6754843167 23.8492721315
429 24 2 6.86342305117 20.6933692672 24.8489070488
430 24 2 6.85738114768 20.5616045857 25.8765507494
431 24 2 7.12607742831 20.3083519361 26.8445979669
432 24 2 7.65347805014 19.9728462861 27.6708754954
433 25 1 43.4136453224 11.5741121495 16.6551599384
434 25 1 39.7362427298 9.2855139261 20.0840109711
435 25 2 43.502737535 12.115376437 16.7356405994
436 25 2 43.4344418895 13.1392889245 16.8784304236
437 25 2 43.0669216976 14.0981614207 17.0160620182
438 25 2 42.4330749347 14.9058381443 17.1551540828
439 25 2 41.5900745315 15.4899444049 17.3021921994
440 25 2 40.6141572139 15.798483362 17.4629376883
441 25 2 39.5936747291 15.8045753984 17.6419024797
442 25 2 38.6210408205 15.5089081252 17.8419378629
443 25 2 37.7843079615 14.9396737081 18.0639745993
444 25 2 37.159141608 14.1499992271 18.3069380853
445 25 2 36.8019234945 13.2131042843 18.5678463006
446 25 2 36.7446125896 12.2156272338 18.8420816104
447 25 2 36.9918321213 11.2497283268 19.1238116508
448 25 2 37.5204481824 10.404689551 19.4065209336
449 25 2 38.281678324 9.75877681633 19.6836047149
450 25 2 39.2055379456 9.37210622622 19.9489710005
451 26 1 30.3609541775 46.5595753807 0.296766296423
452 26 1 31.9414562863 43.5937724798 4.6812864866
453 26 2 30.0875738997 47.0266896199 0.416970703171
454 26 2 29.4468939749 47.757219243 0.77656174155
455 26 2 28.6974009142 48.2497885035 1.29529643926
456 26 2 27.9168203338 48.4656243638 1.94148437649
457 26 2 27.1857113946 48.3911772958 2.67181811131
458 26 2 26.5801240492 48.0393562846 3.43532053723
459 26 2 26.1646672927 47.4483522088 4.17799131022
460 26 2 25.9866202251 46.6781568441 4.84772883573
461 26 2 26.0716226878 45.8050947732 5.39907918982
462 26 2 26.4213382605 44.9148666043 5.79737912275
463 26 2 27.0133026306 44.0947375892 6.02191552164
464 26 2 27.802971155 43.4255836296 6.06781335529
465 26 2 28.7277789853 42.9745196542 5.94648002028
466 26 2 29.7128436867 42.7887822725 5.68456558722
467 26 2 30.6777905716 42.8914242842 5.32153371808
468 26 2 31.5440786375 43.2792134781 4.90606465888
469 27 1 49.1136228105 47.1647054347 22.7002828159
470 27 1 44.1848826128 45.4769068706 20.8626628521
471 27 2 49.2846662037 46.9207241226 23.1678283913
472 27 2 49.3905981589 46.5248351616 24.1194062193
473 27 2 49.2060300631 46.223306901 25.0932980701
474 27 2 48.7417240841 46.0255739114 25.998158078
475 27 2 48.0339397499 45.9316101024 26.748932445
476 27 2 47.1411289901 45.9319310998 27.2746118675
477 27 2 46.1386083981 46.0084587213 27.5247038444
478 27 2 45.1116943255 46.1361687547 27.4738349339
479 27 2 44.1479265244 46.2853718476 27.1240634744
480 27 2 43.3290891331 46.4244196127 26.5046919729
481 27 2 42.7237562703 46.5225892936 25.6695962598
482 27 2 42.3810416876 46.5528840623 24.6923148505
483 27 2 42.3261221824 46.4944937073 23.6593461067
484 27 2 42.5579427998 46.3346914293 22.662264142
485 27 2 43.0493129893 46.0699938546 21.7893720856
486 27 2 43.7493849505 45.7064785356 21.1176534889
487 28 1 33.2752629807 9.43550028224 6.49778283927
488 28 1 36.4631631464 12.7646708892 9.54276340812
489 28 2 33.0459745124 9.01375346625 6.77515985625
490 28 2 32.8378182811 8.18973630135 7.36771087219
491 28 2 32.9282335622 7.39233775843 8.02302045696
492 28 2 33.3047087411 6.70249425535 8.69817406325
493 28 2 33.9286586084 6.19133885556 9.34844841423
494 28 2 34.7389412981 5.91371767947 9.93138791069
495 28 2 35.6574312055 5.90319082718 10.4106743455
496 28 2 36.5961399272 6.16897346508 10.7594372109
497 28 2 37.465236169 6.69509588802 10.9627028738
498 28 2 38.1812336282 7.44185911527 11.0187593822
499 28 2 38.6746005467 8.34945334653 10.939312505
500 28 2 38.8960973453 9.34340946532 10.7484187825
501 28 2 38.8212646798 10.3413866999 10.4802928373
502 28 2 38.4526528443 11.2606777648 10.1761888024
503 28 2 37.8195893192 12.0257474082 9.8806401177
504 28 2 36.9755056495 12.575117249 9.63740042573
505 29 1 57.9433671459 45.8276446593 51.8072943295
506 29 1 57.8520702946 41.3822355047 55.0857075728
507 29 2 57.81610486 46.3054621362 52.0580459146
508 29 2 57.3920319995 47.0772395067 52.6039139485
509 29 2 56.7678246788 47.6282561727 53.2205141964
510 29 2 56.0088467934 47.9060912252 53.8687504684
511 29 2 55.1927462158 47.8832235296 54.5066430353
512 29 2 54.4023773992 47.5595402027 55.0931549694
513 29 2 53.7182494155 46.9623469022 55.59193255
514 29 2 53.2111877685 46.143878989 55.9746188085
515 29 2 52.9358788391 45.1765404133 56.2234381898
516 29 2 52.9258853668 44.1463042885 56.332816747
517 29 2 53.1905872969 43.1448766713 56.3098901916
518 29 2 53.7143268226 42.2613378001 56.1738534925
519 29 2 54.4578355526 41.5740226691 55.9542113058
520 29 2 55.3618137203 41.143381003 55.6880887044
521 29 2 56.3523351985 41.0064674264 55.4168473268
522 29 2 57.3475856687 41.1735640333 55.1823153743
523 30 1 52.8309925121 30.7548664742 7.73651962148
524 30 1 50.2125133619 27.6882583978 11.5124265202
525 30 2 52.895860904 31.2882996928 7.87298456602
526 30 2 52.786497154 32.2738851984 8.17316916349
527 30 2 52.3902725218 33.1647404721 8.52364445985
528 30 2 51.7470002219 33.8784554855 8.91128042178
529 30 2 50.9190112034 34.3487660715 9.3195599206
530 30 2 49.9854728508 34.5315937262 9.73008422444
531 30 2 49.035173088 34.409063246 10.1242499934
532 30 2 48.1584275968 33.9911320058 10.4849449245
533 30 2 47.4388477838 33.3146823696 10.7981074918
534 30 2 46.9457198238 32.4401599628 11.0540086177
535 30 2 46.7276894109 31.446064214 11.2481384517
536 30 2 46.8083278327 30.4217933425 11.3816174314
537 30 2 47.1839835109 29.4594959495 11.4610941579
538 30 2 47.8241148329 28.6456719192 11.498139393
539 30 2 48.6740739378 28.0532881854 11.508191416
540 30 2 49.6600877233 27.7351279911 11.5091488649
541 31 1 9.08103554909 33.4941779156 18.9914892846
542 31 1 10.1838389047 28.5582419928 16.7692488865
543 31 2 8.59656979028 33.5268950557 19.2590787188
544 31 2 7.60597013762 33.494355195 19.5609122769
545 31 2 6.58363283935 33.3285354482 19.5888456145
546 31 2 5.62180340494 33.0273370899 19.3488170762
547 31 2 4.80721221376 32.6010007929 18.8711890155
548 31 2 4.21316927286 32.071173219 18.2079803474
549 31 2 3.89288220575 31.4689339831 17.428125163
550 31 2 3.87460651972 30.8319628296 16.6111895719
551 31 2 4.1590701919 30.2011052242 15.8401194634
552 31 2 4.71940731605 29.6166493994 15.1936802109
553 31 2 5.50360685813 29.114654189 14.739277418
554 31 2 6.43925332306 28.7236623625 14.5268130787
555 31 2 7.44012723349 28.4620990276 14.5841371434
556 31 2 8.41406380477 28.3365922306 14.9145090705
557 31 2 9.27135351873 28.3413688286 15.4963007356
558 31 2 9.93291890644 28.4587806948 16.2849677773
559 32 1 23.013838172 12.9480598168 51.5758128491
560 32 1 26.887655682 12.6421510965 55.5023824481
561 32 2 22.7798017437 13.4472036176 51.5169570562
562 32 2 22.3138742334 14.3643923834 51.6399462195
563 32 2 21.8609891278 15.1976216838 52.0571680132
564 32 2 21.4774412659 15.8826304781 52.7332626816
565 32 2 21.2132055822 16.3686676284 53.6092748979
566 32 2 21.107382025 16.6231177305 54.6080273855
567 32 2 21.1846317008 16.6344739204 55.64115542
568 32 2 21.4529290802 16.4133866947 56.6171610378
569 32 2 21.9028351462 15.991693146 57.449752831
570 32 2 22.5083577353 15.4195150971 58.0657111782
571 32 2 23.2293206541 14.7606906307 58.411562018
572 32 2 24.0150256315 14.086955419 58.4584508661
573 32 2 24.8088733309 13.4714042086 58.2047728247
574 32 2 25.5535222283 12.98182843 57.6763188647
575 32 2 26.196115139 12.6745371898 56.9239250476
576 32 2 26.6930970087 12.5892248461 56.0188389542
577 33 1 47.6650982977 23.2430674754 57.1746797372
578 33 1 45.3275221836 27.1816823122 54.0858219968
579 33 2 47.8979704776 23.422339774 57.6448005502
580 33 2 48.4373721645 23.9128851781 58.3809126598
581 33 2 49.0580227239 24.5769786462 58.8781276635
582 33 2 49.6909132991 25.3676206183 59.0967250169
583 33 2 50.2659193886 26.2262769767 59.0223794295
584 33 2 50.718192507 27.0882142742 58.6674665771
585 33 2 50.9940709512 27.8884000145 58.0699350916
586 33 2 51.0559709212 28.5674301911 57.289847645
587 33 2 50.8858121831 29.0769438029 56.4039063973
588 33 2 50.4866660339 29.3840308308 55.4984617994
589 33 2 49.882475361 29.4742318979 54.6616419803
590 33 2 49.1158723123 29.3528562027 53.9753201043
591 33 2 48.2442924896 29.0444976003 53.5076518499
592 33 2 47.334739847 28.5907929379 53.3068632028
593 33 2 46.4576794597 28.0466269675 53.3968547856
594 33 2 45.6806148207 27.4751297479 53.7750233801