LAMMPS input file for bananas

648 atoms

2 atom types

0 33.7373066121 xlo xhi
0 33.7373066121 ylo yhi
0 33.7373066121 zlo zhi

Masses

 1 1
 2 1

Atoms

1 1 1 22.547283352 11.4628343034 10.287033459
2 1 1 17.7464545108 10.9349150134 7.63939704359
3 1 2 22.8706936284 11.0125680693 10.2801877907
4 1 2 23.2789414063 10.0625188815 10.3388270576
5 1 2 23.3981903535 9.04214125441 10.4703848693
6 1 2 23.2146984353 8.03791473079 10.6451935541
7 1 2 22.7423163714 7.13484679104 10.8296434201
8 1 2 22.0212252377 6.4087250042 10.9892460475
9 1 2 21.1142742365 5.91920951063 11.0917776722
10 1 2 20.1012524228 5.70439540923 11.1102161606
11 1 2 19.0716164789 5.77734065042 11.0252038918
12 1 2 18.1163373511 6.12487589343 10.8268120724
13 1 2 17.3196088719 6.70880480146 10.5154456775
14 1 2 16.751174069 7.46938537586 10.1018065403
15 1 2 16.4599685669 8.33077502976 9.60591795327
16 1 2 16.46966044 9.20794311983 9.05529968218
17 1 2 16.7764930297 10.0144209065 8.48245972842
18 1 2 17.3496273387 10.6701825866 7.92193144736
19 2 1 28.8727069727 12.4613611024 26.8041287939
20 2 1 29.5134707577 9.07748243923 31.1024333308
21 2 2 28.5460990569 12.8997877651 26.8962704369
22 2 2 27.7869659581 13.5566416089 27.1511394959
23 2 2 26.8997698766 13.9546081009 27.5077962711
24 2 2 25.9701471196 14.0620732731 27.9515879312
25 2 2 25.0876008952 13.8739003614 28.4599198978
26 2 2 24.3373437082 13.4118979861 29.0043151858
27 2 2 23.7925308245 12.7228324456 29.5530098857
28 2 2 23.5075926705 11.874165289 30.0738482261
29 2 2 23.5132738725 10.9479046587 30.5372133518
30 2 2 23.8138310953 10.03313081 30.9187266971
31 2 2 24.3866450759 9.21787705682 31.2014699247
32 2 2 25.1842822144 8.5811061389 31.3775269166
33 2 2 26.1388178217 8.18551330905 31.4487052736
34 2 2 27.1680269888 8.07181209096 31.4263715651
35 2 2 28.1828788236 8.25502352059 31.330415344
36 2 2 29.0956510068 8.72310708171 31.1874363506
37 3 1 16.7207940923 20.3826779297 7.34299050375
38 3 1 16.3351768713 18.2122133547 2.29551412299
39 3 2 16.4705764189 20.8731143666 7.40813625545
40 3 2 16.1234912655 21.8462585307 7.33588251461
41 3 2 15.9468977583 22.813142604 7.00931216495
42 3 2 15.9411495555 23.6833434799 6.44769337544
43 3 2 16.0910289369 24.3752500629 5.69171736882
44 3 2 16.367133795 24.8235015595 4.79978969564
45 3 2 16.7285574356 24.9849446671 3.84270696876
46 3 2 17.1266169425 24.8425667011 2.89720423746
47 3 2 17.5092902913 24.4070461849 2.03896111385
48 3 2 17.8259578005 23.7157795756 1.33570409502
49 3 2 18.0320157683 22.829472833 0.841033757232
50 3 2 18.0929417943 21.8266084882 0.589539430869
51 3 2 17.9874412596 20.7962924981 0.593646620099
52 3 2 17.7093881852 19.8301328495 0.842484503382
53 3 2 17.2683835729 19.0138901179 1.30287673431
54 3 2 16.6888803403 18.4196609802 1.92236523813
55 4 1 4.92470146142 14.3297756782 29.4558378183
56 4 1 6.81342076115 12.2122440454 34.1765828991
57 4 2 4.49374671459 14.0613279459 29.2331394283
58 4 2 3.8244713654 13.3704262222 28.8491816362
59 4 2 3.37634962676 12.4856823454 28.5506628747
60 4 2 3.18016468661 11.4830927017 28.3802993024
61 4 2 3.24373742099 10.449394511 28.369126611
62 4 2 3.55121357483 9.47416032383 28.5336713347
63 4 2 4.06450876864 8.64163409774 28.8744445701
64 4 2 4.7267796285 8.02305293801 29.3758953933
65 4 2 5.46760466997 7.67015432397 30.0078282198
66 4 2 6.20940273351 7.61046059244 30.7281549251
67 4 2 6.87450397528 7.84477046545 31.4867308888
68 4 2 7.39222894093 8.34708625219 32.2299253327
69 4 2 7.70533051322 9.06698336032 32.9055093987
70 4 2 7.77521159433 9.93420615177 33.4674164511
71 4 2 7.58544296663 10.8650712626 33.8799407347
72 4 2 7.14326070329 11.7700947676 34.1209917094
73 5 1 19.8254652202 6.60665870823 34.9997748822
74 5 1 21.6708035522 7.37407986147 29.8672875572
75 5 2 19.5593874332 6.12781672929 35.0851781731
76 5 2 18.941524903 5.2972003335 35.0532318436
77 5 2 18.2254460398 4.60588283972 34.7668589127
78 5 2 17.4867173731 4.10481914519 34.2415843158
79 5 2 16.8029698067 3.82762381779 33.5147072375
80 5 2 16.2468230941 3.78750735856 32.6419015462
81 5 2 15.8792670458 3.97607215517 31.6921415028
82 5 2 15.7441027262 4.36407786666 30.7414152301
83 5 2 15.863950287 4.9041064801 29.8657989158
84 5 2 16.2381872954 5.5348841373 29.1345229899
85 5 2 16.8430054645 6.18686582694 28.6036622457
86 5 2 17.6335806156 6.7885739355 28.3110250066
87 5 2 18.5481580945 7.27311294171 28.272707157
88 5 2 19.5136812852 7.58426648464 28.4816251125
89 5 2 20.4524502191 7.68162109961 28.90816144
90 5 2 21.289203395 7.54424962838 29.502864284
91 6 1 23.6110662348 7.04282477353 25.0090967752
92 6 1 22.1168446166 4.13270190139 20.5779432514
93 6 2 23.5341641381 6.78766000464 25.4952631663
94 6 2 23.1743340457 6.27290287568 26.318819888
95 6 2 22.5673813658 5.73499411178 26.9629944584
96 6 2 21.7734157167 5.2050169508 27.3647917058
97 6 2 20.8695916668 4.71333171935 27.4833074895
98 6 2 19.9430766244 4.28680869721 27.3034568323
99 6 2 19.0831061263 3.94637907553 26.8373488124
100 6 2 18.3728506304 3.70512722228 26.1231829039
101 6 2 17.8818350984 3.56709813182 25.2217673567
102 6 2 17.6596022727 3.52692875137 24.2109769417
103 6 2 17.7311971945 3.57033678653 23.1786551988
104 6 2 18.0948845205 3.67542243448 22.2146081012
105 6 2 18.7223066875 3.81466440086 21.4024188558
106 6 2 19.5610685095 3.95742827707 20.8118298678
107 6 2 20.53951264 4.07275865657 20.4923861982
108 6 2 21.5732506479 4.13220050796 20.4689198711
109 7 1 5.83065134363 10.2225263463 14.0993928637
110 7 1 10.9430316952 11.874993319 12.8871408388
111 7 2 5.47089316425 10.2416200269 13.6779782989
112 7 2 4.88035887145 10.4965996251 12.8662191446
113 7 2 4.45202740472 11.0104788298 12.0755494356
114 7 2 4.23582325102 11.7307905601 11.3634363504
115 7 2 4.26233694709 12.5862528258 10.7801871696
116 7 2 4.54003696175 13.4932655922 10.3643641127
117 7 2 5.05449785307 14.3635303495 10.1392696558
118 7 2 5.76971504846 15.1120979173 10.1108226706
119 7 2 6.63138641459 15.6651109795 10.2670189603
120 7 2 7.57186152462 15.9665356725 10.5790253592
121 7 2 8.5163075307 15.9832686876 11.0038076786
122 7 2 9.38952966506 15.7081544108 11.4880529778
123 7 2 10.1228247275 15.1606371075 11.9730286732
124 7 2 10.6602429111 14.3849887117 12.3999356105
125 7 2 10.9636872434 13.4462737423 12.7152672048
126 7 2 11.0163858645 12.4244191181 12.8756861984
127 8 1 2.44400982775 8.8336332018 7.6658570983
128 8 1 7.31153588116 9.70243623177 10.0925845946
129 8 2 2.44254399492 8.88982384721 7.11429457751
130 8 2 2.54584036069 9.19937520752 6.13133675175
131 8 2 2.79241776422 9.74270758426 5.28476260642
132 8 2 3.17664587772 10.4627049556 4.64705513971
133 8 2 3.6803484549 11.2861494968 4.27166058404
134 8 2 4.27445997125 12.1303948827 4.18811714846
135 8 2 4.92167474732 12.9108989338 4.39936281336
136 8 2 5.57984710559 13.5489290563 4.88146755374
137 8 2 6.20583266007 13.9787381781 5.58581439691
138 8 2 6.75942063126 14.1535571438 6.44353052622
139 8 2 7.206998783 14.0498574024 7.37176456611
140 8 2 7.52461694736 13.6694954736 8.28123791695
141 8 2 7.70016991825 13.0395437386 9.08438188727
142 8 2 7.73450075795 12.2098229782 9.70331897967
143 8 2 7.64132395774 11.2483615503 10.0769608907
144 8 2 7.44597545611 10.2351950714 10.1665762909
145 9 1 10.3483649628 23.0646656247 9.59604283119
146 9 1 11.200175462 27.9269127939 7.15276506012
147 9 2 10.7446468171 22.6861923096 9.51178493326
148 9 2 11.4549586621 22.0372247671 9.12838373004
149 9 2 12.0826909929 21.5246076255 8.48350074982
150 9 2 12.5863740231 21.2057866003 7.636532728
151 9 2 12.9358442099 21.1205442195 6.66529506596
152 9 2 13.1149934536 21.2873739193 5.65892949082
153 9 2 13.1232372409 21.7017944938 4.7097793981
154 9 2 12.975567919 22.3367585264 3.90497338442
155 9 2 12.701188246 23.1451175766 3.31848407318
156 9 2 12.3408497599 24.0639194365 3.0043860172
157 9 2 11.9431385552 25.0201457935 2.9919271739
158 9 2 11.5600469932 25.9373673488 3.28286315455
159 9 2 11.2422349553 26.7427098235 3.85129721231
160 9 2 11.0344125417 27.3734959502 4.64604055317
161 9 2 10.9712650525 27.7829580757 5.59527784358
162 9 2 11.0742916602 27.944500712 6.6131126857
163 10 1 24.8981059313 16.5010755446 9.22529304962
164 10 1 27.3840987435 12.8060065848 5.98446907307
165 10 2 24.9012073702 16.3796658951 9.76624667952
166 10 2 24.8265352186 15.9444401898 10.7031036197
167 10 2 24.6682729017 15.2678008018 11.4710947972
168 10 2 24.4582261536 14.4038991946 12.0023693475
169 10 2 24.2329205046 13.4239544989 12.2506515033
170 10 2 24.030272229 12.4097623773 12.1954583143
171 10 2 23.8861325371 11.4462399107 11.8439665269
172 10 2 23.8310199826 10.6136859882 11.2303584732
173 10 2 23.8873389064 9.98046261389 10.4127065863
174 10 2 24.0673374337 9.59676417928 9.46768049541
175 10 2 24.3719911422 9.49004258826 8.48355911519
176 10 2 24.7909141442 9.66250520445 7.55218462794
177 10 2 25.3033056895 10.0909136651 6.76059169831
178 10 2 25.879846011 10.7287018984 6.18307486029
179 10 2 26.4853686203 11.5102203021 5.87441707986
180 10 2 27.0820654924 12.356719254 5.86489666325
181 11 1 16.6495233641 7.81397061972 15.4741175356
182 11 1 17.2865878363 7.26844386335 20.9177545866
183 11 2 16.1326675134 7.92581337677 15.3075883223
184 11 2 15.1120688957 7.95134549673 15.1331611353
185 11 2 14.097051958 7.74726906064 15.1612982185
186 11 2 13.1741879164 7.34408362175 15.4030868321
187 11 2 12.4216488824 6.79043615382 15.8501413642
188 11 2 11.9020830109 6.14868721298 16.4753676218
189 11 2 11.6569045502 5.48922720057 17.2354322806
190 11 2 11.7025192175 4.88406076068 18.0747124205
191 11 2 12.0288289299 4.4002440505 18.9303651735
192 11 2 12.6001521757 4.09377303137 19.73805542
193 11 2 13.3584761395 4.00447982076 20.4378194942
194 11 2 14.2287441725 4.15240226789 20.9795304609
195 11 2 15.1256966916 4.53595764119 21.3274668419
196 11 2 15.9616420055 5.13208688334 21.4635683842
197 11 2 16.6544488117 5.89835628634 21.3890821278
198 11 2 17.1350319011 6.77682503301 21.1244487466
199 12 1 22.0063002098 9.94647961034 18.5589714051
200 12 1 18.1764535909 5.98897641606 18.6431038591
201 12 2 21.8279762991 10.4498987868 18.7078017354
202 12 2 21.3248959759 11.3470687429 18.8290227298
203 12 2 20.631865326 12.1126090767 18.7493058142
204 12 2 19.8000041838 12.6725218173 18.4900703341
205 12 2 18.8930858311 12.9715505387 18.0890975215
206 12 2 17.9817245 12.9782166048 17.5970869943
207 12 2 17.1369393695 12.6876882311 17.0730358342
208 12 2 16.4236816544 12.1222208686 16.5788614066
209 12 2 15.8949147473 11.3291287721 16.1737580179
210 12 2 15.5867869687 10.3764726304 15.9088017596
211 12 2 15.5153368951 9.34685630096 15.8222952734
212 12 2 15.6750315529 8.32989803465 15.9362767277
213 12 2 16.0392707111 7.41406238675 16.2545111896
214 12 2 16.5628113097 6.67859727917 16.7621474651
215 12 2 17.1858910548 6.18631109569 17.4270716833
216 12 2 17.8396753415 5.97784812842 18.2028342558
217 13 1 11.3070554884 10.9572784732 13.8913324194
218 13 1 10.3471272054 5.69568894003 12.5757153766
219 13 2 11.7211220656 11.0382676341 14.2510133572
220 13 2 12.3823469084 11.0250168719 15.0480732017
221 13 2 12.8556976977 10.7886542528 15.9384495343
222 13 2 13.1106903069 10.3376718053 16.8352727456
223 13 2 13.1367424609 9.700122684 17.6510856374
224 13 2 12.944138237 8.92106431674 18.3058145465
225 13 2 12.5630907426 8.05845172883 18.7340675106
226 13 2 12.0409883968 7.17785533996 18.8910942968
227 13 2 11.4380758018 6.34648466999 18.7568650789
228 13 2 10.8219628595 5.62706265199 18.3378960186
229 13 2 10.2614625934 5.07210886694 17.6666553619
230 13 2 9.82031931242 4.719152744 16.7986041814
231 13 2 9.55139875491 4.58731301034 15.8071414794
232 13 2 9.49186973865 4.67555515024 14.7769143723
233 13 2 9.65981647806 4.96278569413 13.7961030865
234 13 2 10.052590332 5.40977474368 12.9483839347
235 14 1 14.1026948515 27.191550043 2.48536989433
236 14 1 10.6123437229 28.2595635284 6.61010396104
237 14 2 14.1159280599 27.5731264734 2.08336857392
238 14 2 13.9068373775 28.2603851904 1.33727554118
239 14 2 13.4102778335 28.8729843124 0.665822485412
240 14 2 12.6699051624 29.3712434808 0.140194879501
241 14 2 11.7515969938 29.7259036401 -0.181712793624
242 14 2 10.7374485579 29.9207937998 -0.260573726181
243 14 2 9.71829026813 29.9543049095 -0.0792131544383
244 14 2 8.78540915177 29.8395365127 0.355826279326
245 14 2 8.02222866329 29.6031028135 1.01488084381
246 14 2 7.4967052084 29.282706974 1.84786936441
247 14 2 7.2551343836 28.9237047297 2.78885777895
248 14 2 7.31793144998 28.5749705254 3.76206857537
249 14 2 7.67777062212 28.2844429442 4.68878739241
250 14 2 8.30025276319 28.0947554347 5.49453729399
251 14 2 9.12704063049 28.0393505645 6.1158668313
252 14 2 10.0811759151 28.1394319591 6.50613320733
253 15 1 5.66627586832 19.6182279025 19.1674394197
254 15 1 6.70355595844 15.3968789963 22.5498791241
255 15 2 5.37612663131 20.0339556125 19.3918601028
256 15 2 4.68965542326 20.6376330625 19.8787164348
257 15 2 3.87731901234 20.9694135391 20.4289250697
258 15 2 3.02045786319 20.9997761389 21.0099288173
259 15 2 2.20447056505 20.7266721315 21.5863637239
260 15 2 1.51103033589 20.1757116871 22.1232822543
261 15 2 1.01064106853 19.3978296849 22.5893385201
262 15 2 0.756211384195 18.4646433487 22.9596452427
263 15 2 0.778232374454 17.4619248273 23.2180420574
264 15 2 1.08199854725 16.4817836515 23.3585684209
265 15 2 1.64712526883 15.6142715818 23.3860068729
266 15 2 2.42940668332 14.9391750081 23.3154471413
267 15 2 3.36484477342 14.5187429667 23.1709108162
268 15 2 4.37548234092 14.3920135681 22.9831619473
269 15 2 5.37650827081 14.5712559404 22.7869031112
270 15 2 6.28398748295 15.0408519826 22.6176125098
271 16 1 21.8132086104 28.6359360458 8.18879183428
272 16 1 19.7155966319 28.8920589738 13.2751520221
273 16 2 21.7618780092 28.1444536765 7.93741362966
274 16 2 21.7571295881 27.1442534628 7.66857305224
275 16 2 21.8562013122 26.1134420855 7.68620736344
276 16 2 22.0327106333 25.1405343557 7.99441716209
277 16 2 22.253217097 24.3087675642 8.57081908351
278 16 2 22.4802702109 23.6885149726 9.36858588983
279 16 2 22.6758228005 23.3308717738 10.3207144516
280 16 2 22.804698748 23.2629981147 11.3461326237
281 16 2 22.8377990545 23.4856436355 12.3570884154
282 16 2 22.7547540141 23.9730791448 13.2671479831
283 16 2 22.5457797728 24.6754416593 13.9990734818
284 16 2 22.2125700601 25.5232790729 14.4918627659
285 16 2 21.7681418168 26.4338802396 14.7063093163
286 16 2 21.2356487903 27.3188135276 14.6285756454
287 16 2 20.6462712293 28.0919867565 14.2714544897
288 16 2 20.0363740175 28.6774939087 13.6732028396
289 17 1 10.5057754517 25.1486104149 11.0992999794
290 17 1 10.8222759856 20.2559086268 8.58973197845
291 17 2 10.9897671547 25.3558635312 11.2730208156
292 17 2 11.9199682088 25.5299831688 11.6938611912
293 17 2 12.8190907418 25.4098659522 12.1937099645
294 17 2 13.6168434918 25.0014130877 12.7128005908
295 17 2 14.252174358 24.3368055987 13.1896127625
296 17 2 14.6788348806 23.4715712465 13.5664795631
297 17 2 14.8695954708 22.4795235557 13.7948434117
298 17 2 14.8187272016 21.4460342169 13.8396817531
299 17 2 14.5425239595 20.460252043 13.6826991239
300 17 2 14.0778173693 19.6069776659 13.3239946585
301 17 2 13.4786198432 18.9589345404 12.7820530535
302 17 2 12.8112017203 18.5701406995 12.0920598147
303 17 2 12.1480511794 18.4709853816 11.302694339
304 17 2 11.5612674385 18.6654592594 10.4716931217
305 17 2 11.1159894051 19.1307907178 9.66058747016
306 17 2 10.8644587118 19.8195213299 8.92909534757
307 18 1 13.264180598 29.3405783165 10.6470334155
308 18 1 9.54208559998 25.8846138605 8.51655144396
309 18 2 13.4673682103 29.7154370992 10.2926657548
310 18 2 13.8825264909 30.2276249505 9.49391330371
311 18 2 14.2974020073 30.4587722009 8.57350712945
312 18 2 14.6587002155 30.3922405625 7.60513973173
313 18 2 14.9180097758 30.0385231374 6.66687494704
314 18 2 15.0362149145 29.434288043 5.83403296502
315 18 2 14.9870605585 28.6390363648 5.17232540969
316 18 2 14.7595453054 27.7296790404 4.73186617536
317 18 2 14.3589241255 26.7935269543 4.5426038888
318 18 2 13.8062294075 25.9203331504 4.61159229721
319 18 2 13.1363540005 25.1941124563 4.92234736755
320 18 2 12.3948709701 24.6854841087 5.43634969311
321 18 2 11.6338799257 24.4452352935 6.09655527336
322 18 2 10.9072584985 24.4996922423 6.83259468349
323 18 2 10.2657517646 24.848320777 7.56718676502
324 18 2 9.75234717951 25.4637749962 8.22318227355
325 19 1 17.4553352739 14.6779921201 22.9058997564
326 19 1 17.3999901647 19.7696579049 20.806254219
327 19 2 17.6573105479 14.6377624784 23.4206504885
328 19 2 18.2135012956 14.6866143029 24.2929827776
329 19 2 18.9509773534 14.9055441225 24.9864502025
330 19 2 19.7956356067 15.2904296522 25.4459214586
331 19 2 20.6636040187 15.8220228817 25.6375923879
332 19 2 21.4688859916 16.4677043997 25.5520669961
333 19 2 22.1311983664 17.1844564296 25.2052138329
334 19 2 22.5832886829 17.9227836052 24.6367196829
335 19 2 22.7770647804 18.6312241332 23.9064723868
336 19 2 22.687978068 19.2610401837 23.0891024759
337 19 2 22.3172609607 19.7706600087 22.2671811102
338 19 2 21.691814553 20.1294669222 21.5236942839
339 19 2 20.8617567687 20.3205898009 20.9344792203
340 19 2 19.8958544559 20.3424407718 20.5613123296
341 19 2 18.87525576 20.2088599357 20.4462787121
342 19 2 17.8860940266 19.9478539368 20.6079363902
343 20 1 2.53605319838 7.20298454599 7.60276149794
344 20 1 2.84789875784 2.54856507372 10.5312024911
345 20 2 2.50113435763 7.13385740524 7.05377801494
346 20 2 2.62158031859 6.86405254057 6.06110668132
347 20 2 2.96336354972 6.42077344647 5.18967903732
348 20 2 3.4840227021 5.82913074797 4.51768853482
349 20 2 4.12479311296 5.12775739549 4.10515129761
350 20 2 4.81596280183 4.36528753619 3.98843606322
351 20 2 5.4832262396 3.59592384498 4.17694942178
352 20 2 6.05445678802 2.87449732226 4.65227846987
353 20 2 6.46628054831 2.2514698242 5.36986902039
354 20 2 6.66985245752 1.76833481048 6.26308641128
355 20 2 6.63530818112 1.45383549999 7.24928879809
356 20 2 6.35448604236 1.32134512342 8.23735939152
357 20 2 5.84167090312 1.36764804502 9.13601112801
358 20 2 5.13229219671 1.57323284574 9.86210685978
359 20 2 4.27969477795 1.9040706553 10.3482367358
360 20 2 3.35027690533 2.3147166504 10.5488621476
361 21 1 23.0497374325 25.2624976513 5.19763639338
362 21 1 20.4253957246 28.8152597749 1.90714299268
363 21 2 23.2472493238 24.8099168726 4.94556409596
364 21 2 23.3980916974 23.9504402813 4.3876708817
365 21 2 23.2593837658 23.1478628038 3.74788359406
366 21 2 22.8498653696 22.4825200218 3.06794834959
367 21 2 22.2129588671 22.0222395152 2.39327047586
368 21 2 21.412811483 21.8161588436 1.76877612712
369 21 2 20.5284487294 21.8902469945 1.23481757342
370 21 2 19.6465717719 22.244937488 0.823495367781
371 21 2 18.853655213 22.8550888645 0.555732600916
372 21 2 18.2280655244 23.6722761564 0.439367904955
373 21 2 17.8329184811 24.629204492 0.468441015865
374 21 2 17.7103265908 25.6458425614 0.623736010654
375 21 2 17.8775608277 26.6367169219 0.874532707004
376 21 2 18.3254765017 27.5187023161 1.18140659727
377 21 2 19.0193467338 28.2185979695 1.49982212206
378 21 2 19.9020275735 28.679799339 1.7841917811
379 22 1 23.5353614084 24.9222278704 11.8817424939
380 22 1 22.8441908085 24.5076899291 17.3303273032
381 22 2 23.4082588434 25.4165387187 11.6652188813
382 22 2 22.9710476781 26.3116149962 11.3816997012
383 22 2 22.315545505 27.1081225071 11.2890122843
384 22 2 21.507918793 27.7453213962 11.4090745218
385 22 2 20.6281991198 28.176991697 11.7444136323
386 22 2 19.7629888421 28.3756459647 12.2779358234
387 22 2 18.9975678849 28.3350345683 12.9744842738
388 22 2 18.4081210605 28.0707153015 13.7840434363
389 22 2 18.0547943457 27.618635397 14.646297612
390 22 2 17.9762129883 27.0318551819 15.4961283131
391 22 2 18.18596108 26.3757119933 16.2695493661
392 22 2 18.6713434606 25.7218651279 16.9095388131
393 22 2 19.3945427938 25.141764588 17.3712360724
394 22 2 20.2960663587 24.7001389041 17.6260306725
395 22 2 21.3001684034 24.449095573 17.6641699012
396 22 2 22.3217538508 24.4233718167 17.4956476976
397 23 1 7.3713696302 22.907441515 12.8511831184
398 23 1 4.92217243781 24.9330403032 8.35284813879
399 23 2 7.25320040492 22.3779344636 12.9653718588
400 23 2 6.81001392233 21.4606998003 13.1523600538
401 23 2 6.11384694361 20.7038110871 13.2755237037
402 23 2 5.22768507264 20.1685779674 13.3061980758
403 23 2 4.23183064511 19.8961076969 13.2241482011
404 23 2 3.21658372116 19.9035584991 13.0194131526
405 23 2 2.27401185404 20.182575711 12.6932139162
406 23 2 1.48955876384 20.7000532531 12.2578421052
407 23 2 0.934256728194 21.4011510217 11.7355396649
408 23 2 0.658252477213 22.2142931886 11.1564716715
409 23 2 0.686236662827 23.0576918466 10.555976992
410 23 2 1.01519347514 23.846801417 9.97134738908
411 23 2 1.61467551285 24.5020243991 9.43842863229
412 23 2 2.42957885509 24.9559661367 8.98835340224
413 23 2 3.38516540605 25.1595773793 8.64470376002
414 23 2 4.39387475998 25.0866247845 8.42136180403
415 24 1 11.917213868 26.5004324627 19.7860878532
416 24 1 11.9984318428 24.5070803052 24.9199544023
417 24 2 11.5832223989 26.9359961898 19.7078913707
418 24 2 10.8004539992 27.6130843864 19.6688596217
419 24 2 9.87685352144 28.0670671838 19.7853072423
420 24 2 8.89910355491 28.2662810761 20.0628267897
421 24 2 7.95882204342 28.2022829966 20.4923302193
422 24 2 7.144211938 27.890619845 21.0508771977
423 24 2 6.53202210263 27.3694114945 21.703765957
424 24 2 6.18055218152 26.6958764264 22.4076961223
425 24 2 6.12433898618 25.941116658 23.114715245
426 24 2 6.37100870191 25.1836372811 23.7765893388
427 24 2 6.90058181325 24.5021912612 24.3491990774
428 24 2 7.66729409984 23.9686016447 24.7965609687
429 24 2 8.60376773135 23.6412153802 25.0941070028
430 24 2 9.62715229477 23.5595853949 25.2309238583
431 24 2 10.6466760415 23.740865616 25.2107475763
432 24 2 11.57191911 24.1782475078 25.0516230461
433 25 1 16.4344431652 22.3203674098 27.4941113891
434 25 1 16.6410878533 17.0821632755 29.1838304033
435 25 2 16.2960812766 22.6885270201 27.8848737732
436 25 2 15.8596555444 23.2275011587 28.6541186817
437 25 2 15.2354133537 23.5245979049 29.4253213022
438 25 2 14.489365138 23.5457843808 30.143417023
439 25 2 13.6986231149 23.2821750384 30.7581815621
440 25 2 12.9443730361 22.7508415155 31.2288085663
441 25 2 12.3044746626 21.9932566738 31.5276288306
442 25 2 11.8463653818 21.0715146313 31.6426321563
443 25 2 11.6209137515 20.0626713093 31.5785619983
444 25 2 11.6577831796 19.0517213137 31.356483132
445 25 2 11.9627283083 18.1238512593 31.0118617431
446 25 2 12.5170705175 17.3566755937 30.5913329282
447 25 2 13.2794003533 16.8131625728 30.148450225
448 25 2 14.1893517153 16.5358951359 29.7388045754
449 25 2 15.1731038133 16.5431897626 29.4149575913
450 25 2 16.1501094261 16.8274270515 29.2216509246
451 26 1 13.8696495053 27.6600339251 19.4429550427
452 26 1 14.3104911655 32.9804492047 18.0881580798
453 26 2 14.0289527161 27.3029936065 19.0498577908
454 26 2 14.1850713725 26.7649466633 18.1787488865
455 26 2 14.1581620879 26.4446401635 17.1941789765
456 26 2 13.9658354815 26.3801742808 16.1785250504
457 26 2 13.6407788273 26.5863310705 15.2169971929
458 26 2 13.227776833 27.0532271868 14.3898722686
459 26 2 12.7796298211 27.7472146819 13.7651772362
460 26 2 12.3523413417 28.6139477858 13.3924889576
461 26 2 12.0000138325 29.5833361507 13.2984156069
462 26 2 11.7699175526 30.5759331055 13.4841715178
463 26 2 11.6981822229 31.5101766752 13.9254665053
464 26 2 11.8065040491 32.309823396 14.5747197494
465 26 2 12.1001682618 32.9108973837 15.3653964612
466 26 2 12.5675674038 33.2675212976 16.2180720719
467 26 2 13.1812592702 33.3560977452 17.0476712385
468 26 2 13.9004680773 33.1774600226 17.7712218773
469 27 1 21.6660436517 20.0065915466 11.1102785315
470 27 1 25.4530691482 16.0238709029 11.4749826441
471 27 2 21.1444581299 19.8450412599 11.2063555839
472 27 2 20.2218250208 19.3750404749 11.2297153616
473 27 2 19.4423075422 18.7143159724 11.0609139891
474 27 2 18.879357419 17.9105943946 10.7295274243
475 27 2 18.5866877465 17.0246355871 10.2799501504
476 27 2 18.59337741 16.1246947548 9.76734892351
477 27 2 18.9012207437 15.2803014685 9.25263470082
478 27 2 19.4845639896 14.555922521 8.79691102474
479 27 2 20.2926434615 14.0050862209 8.45590485375
480 27 2 21.2542123071 13.6655036543 8.27488743226
481 27 2 22.2840341698 13.555631578 8.28454812707
482 27 2 23.2906518986 13.6729902123 8.49819730197
483 27 2 24.1847232404 13.9943892564 8.91055316938
484 27 2 24.8871637733 14.478041525 9.49822318903
485 27 2 25.3363549099 15.0673715636 10.2218361377
486 27 2 25.4937600092 15.6961721137 11.0296305261
487 28 1 26.1960988059 16.8585891877 33.5463544512
488 28 1 22.412934487 17.1818866771 29.5563943766
489 28 2 26.6796655212 17.1048712149 33.4328240744
490 28 2 27.5688102714 17.4408113401 33.0214068693
491 28 2 28.3633453026 17.6021101538 32.3768953892
492 28 2 28.9851208463 17.5896530818 31.5486814883
493 28 2 29.3717329769 17.4201622077 30.602900237
494 28 2 29.4822113016 17.1246721694 29.616402164
495 28 2 29.3007531308 16.7457015649 28.6697488567
496 28 2 28.8381637849 16.3333776732 27.8398703255
497 28 2 28.1308717634 15.9408676969 27.1930533607
498 28 2 27.2376085372 15.6195329363 26.7788999455
499 28 2 26.2340555771 15.4142475583 26.6258063762
500 28 2 25.2059465072 15.3593086247 26.7383751337
501 28 2 24.2412530728 15.4753101492 27.0969953994
502 28 2 23.4221671185 15.7672660952 27.6596304464
503 28 2 22.8176093655 16.2241533865 28.3656489996
504 28 2 22.4769477604 16.819916586 29.14135136
505 29 1 28.9135016709 25.4583856211 16.5191820921
506 29 1 23.4088442315 25.6454022735 16.5393358415
507 29 2 29.1388520586 25.2044051338 16.0808992309
508 29 2 29.4072749692 24.5592740792 15.3164037538
509 29 2 29.446828582 23.7496590421 14.6716888752
510 29 2 29.2424173705 22.8550825491 14.1914314173
511 29 2 28.8011815292 21.9628107808 13.9053190358
512 29 2 28.151846194 21.1598998578 13.8253443939
513 29 2 27.342103343 20.5252612726 13.9447121129
514 29 2 26.4342649992 20.1224696476 14.238458125
515 29 2 25.4995839177 19.9939683445 14.6657249762
516 29 2 24.6117593849 20.1572010426 15.1734857035
517 29 2 23.840220034 20.6030218672 15.7013768792
518 29 2 23.2437959011 21.2965289734 16.187200323
519 29 2 22.8653564709 22.1802456096 16.57259204
520 29 2 22.727903417 23.1793587301 16.8083416987
521 29 2 22.8324741568 24.2085376904 16.8588778152
522 29 2 23.1580472986 25.1797115511 16.7055098501
523 30 1 19.9763559781 23.478766508 11.8839149937
524 30 1 23.1111265014 19.21307017 13.4049946909
525 30 2 20.2250168752 23.847448497 11.5528227092
526 30 2 20.8584440534 24.5290077184 11.0979102906
527 30 2 21.6686452337 25.137000723 10.8820009925
528 30 2 22.592216147 25.6046747128 10.9135617036
529 30 2 23.5554196505 25.8780660059 11.1785041177
530 30 2 24.4809063624 25.9209184564 11.6414687866
531 30 2 25.294764528 25.7179879531 12.2490478911
532 30 2 25.9332565691 25.2764318161 12.9346529979
533 30 2 26.3486283275 24.6251564558 13.6245841382
534 30 2 26.5134615291 23.812182752 14.2447470553
535 30 2 26.4231727714 22.90026928 14.7274063875
536 30 2 26.0964312694 21.9611922966 15.0173592821
537 30 2 25.5734572847 21.0692038262 15.0769667571
538 30 2 24.9123563241 20.2942640983 14.889584236
539 30 2 24.1838232214 19.6956651521 14.4610785873
540 30 2 23.4646987878 19.3166267733 13.8192933994
541 31 1 13.2321337242 22.3311360634 22.8695040364
542 31 1 8.63728371079 20.4492648739 25.2533138249
543 31 2 13.1657744939 22.7816310292 22.5532264842
544 31 2 12.8675868234 23.4974208728 21.8666208594
545 31 2 12.3568621961 24.0011782442 21.1195685608
546 31 2 11.6673808415 24.2569128986 20.3902445455
547 31 2 10.8492154393 24.2512401615 19.7552079593
548 31 2 9.96416733776 23.99460085 19.2824242954
549 31 2 9.08013378483 23.5203096636 19.0250708052
550 31 2 8.26491955915 22.8815187781 19.0166897571
551 31 2 7.58005702958 22.146373389 19.2681312883
552 31 2 7.07519790155 21.3918007442 19.766564489
553 31 2 6.78358780459 20.6964987527 20.4766468526
554 31 2 6.71903618109 20.13376321 21.3437455021
555 31 2 6.87465765033 19.7648073884 22.2989166025
556 31 2 7.2234995637 19.6331828673 23.265189119
557 31 2 7.72099855388 19.7608101055 24.1645801985
558 31 2 8.30904218017 20.145980541 24.9252027726
559 32 1 11.2830912307 7.43997092818 13.7156032305
560 32 1 15.3233846385 10.8149686734 15.3348790949
561 32 2 11.3896614758 7.14861103663 13.2561111761
562 32 2 11.6483322003 6.81452504622 12.3105032878
563 32 2 11.9789876511 6.77601702442 11.329747265
564 32 2 12.369932836 7.03238117373 10.4055516383
565 32 2 12.8039777666 7.5560361199 9.62446984575
566 32 2 13.2600042085 8.29503876513 9.06001148082
567 32 2 13.714890463 9.1778185453 8.76594239666
568 32 2 14.1456187518 10.1197005962 8.77138431732
569 32 2 14.5313731295 11.0306232868 9.07816059222
570 32 2 14.8554367144 11.8233467196 9.66063001039
571 32 2 15.1067153176 12.421404049 10.468023821
572 32 2 15.2807486021 12.7660709101 11.4290729571
573 32 2 15.3801166123 12.8217177418 12.458503722
574 32 2 15.4142046203 12.5790571773 13.4648099026
575 32 2 15.398347723 12.0559905236 14.3585929332
576 32 2 15.3524331528 11.2959761804 15.0607099615
577 33 1 26.9500676271 5.07748296623 0.799034070677
578 33 1 25.0473495511 1.57260813089 4.59800119856
579 33 2 27.0556532117 5.58968343476 0.983107740707
580 33 2 27.0358281104 6.53028414916 1.41620765125
581 33 2 26.742543724 7.37135187552 1.94468434846
582 33 2 26.209836128 8.03268099349 2.5376132531
583 33 2 25.4935631817 8.45044782458 3.15819540912
584 33 2 24.6663134678 8.58302772285 3.7671114562
585 33 2 23.8107903401 8.41478887604 4.32610531986
586 33 2 23.0122740807 7.95751703802 4.80147099037
587 33 2 22.3508491862 7.2493413382 5.16712459444
588 33 2 21.8941052152 6.35125907275 5.40698176145
589 33 2 21.6909764636 5.34157621929 5.51642360352
590 33 2 21.7672819388 4.30877038389 5.50271769553
591 33 2 22.1233721341 3.34342667389 5.38435568543
592 33 2 22.734097084 2.52998148641 5.18936790737
593 33 2 23.5510986109 1.93902670971 4.95276860889