LAMMPS input file for bananas

4320 atoms

2 atom types

0 126.992084157 xlo xhi
0 126.992084157 ylo yhi
0 126.992084157 zlo zhi

Masses

 1 1
 2 1

Atoms

1 1 1 99.5630254329 78.6313610135 23.3882460203
2 1 1 96.1924361829 74.6511920702 25.2090629668
3 1 2 99.3776703803 79.1480729832 23.4659237707
4 1 2 98.8357791575 80.0300112337 23.5105201397
5 1 2 98.0770478139 80.7315757634 23.4357941726
6 1 2 97.1623012483 81.1874212788 23.2658130035
7 1 2 96.1665847298 81.3545991182 23.0333260233
8 1 2 95.1723237224 81.2164719064 22.7767798604
9 1 2 94.261811024 80.7842300082 22.5368140738
10 1 2 93.5097059983 80.0958715555 22.3525569652
11 1 2 92.9762295726 79.21273902 22.2580591392
12 1 2 92.701675262 78.2139280101 22.2791898819
13 1 2 92.7027365227 77.1890779182 22.4312792443
14 1 2 92.9709851882 76.2302015295 22.7177207491
15 1 2 93.4736396742 75.4232983021 23.1296620806
16 1 2 94.1565529324 74.8405157471 23.646811949
17 1 2 94.9491478093 74.5335733749 24.2392895878
18 1 2 95.7708499648 74.5290486009 24.8703483056
19 2 1 48.5503307837 100.900727681 89.3366516506
20 2 1 49.0699923059 102.181147542 83.9879632185
21 2 2 48.6532708035 100.370313948 89.4609344387
22 2 2 48.6954397549 99.3366281516 89.5171969116
23 2 2 48.5520429806 98.3275471141 89.3310710509
24 2 2 48.2508842643 97.4310931681 88.9078408991
25 2 2 47.8341469689 96.7250229882 88.274401921
26 2 2 47.3545491362 96.2697402778 87.4768095543
27 2 2 46.8705383775 96.1027901323 86.5760813791
28 2 2 46.4409645308 96.235436905 85.6426355289
29 2 2 46.1197156552 96.6516374905 84.7498722659
30 2 2 45.9508062778 97.3095036112 83.9674837431
31 2 2 45.964365588 98.1451198222 83.355101751
32 2 2 46.1738912418 99.0783692326 82.9568624391
33 2 2 46.5750190869 100.020235947 82.7973834242
34 2 2 47.1459209431 100.880918624 82.8795199598
35 2 2 47.8492941832 101.578015633 83.1841046882
36 2 2 48.6357617672 102.044035737 83.671694693
37 3 1 111.624240809 44.7979861206 29.7922293755
38 3 1 116.944422394 45.135894666 31.2411865098
39 3 2 111.26709624 44.9973789907 30.1664910872
40 3 2 110.72002364 45.2327572888 31.0142874292
41 3 2 110.380755544 45.2843881124 31.9918770305
42 3 2 110.289669859 45.1629286967 33.0167677659
43 3 2 110.464523326 44.8948129894 34.002156138
44 3 2 110.898833043 44.5198422672 34.8648391844
45 3 2 111.562467364 44.0875573558 35.5327982052
46 3 2 112.404392321 43.6527231161 35.9517630747
47 3 2 113.357323229 43.2703367735 36.0901588189
48 3 2 114.343857506 42.9906150677 35.9419835896
49 3 2 115.283529715 42.8544171312 35.5273557169
50 3 2 116.10014577 42.8895202884 34.890679977
51 3 2 116.728727826 43.108088227 34.096600216
52 3 2 117.121436832 43.5055623103 33.2241072357
53 3 2 117.251932937 44.0610770844 32.3593389931
54 3 2 117.117776295 44.7393621092 31.5877293562
55 4 1 15.0994080612 87.9417563998 120.807270736
56 4 1 12.2747123034 84.6754085066 124.252565553
57 4 2 15.0443478348 88.485115184 120.902723296
58 4 2 14.7116605726 89.4502147169 121.079788505
59 4 2 14.1077087494 90.2731608271 121.257135357
60 4 2 13.2872589567 90.8795203538 121.43780155
61 4 2 12.3248109973 91.2146014243 121.624522232
62 4 2 11.3078074276 91.2484384721 121.8194807
63 4 2 10.3286634017 90.9785235183 122.024109402
64 4 2 9.47634327775 90.4300347669 122.238959366
65 4 2 8.82825175408 89.6535416792 122.463649982
66 4 2 8.44317863798 88.7203957023 122.69690369
67 4 2 8.3559403119 87.7162267754 122.936662426
68 4 2 8.57420631321 86.7331383897 123.180275213
69 4 2 9.07780027638 85.8613126017 123.424739785
70 4 2 9.82053895476 85.1807901791 123.666976238
71 4 2 10.7344417001 84.7541750995 123.904107756
72 4 2 11.7359267169 84.6209283646 124.133722825
73 5 1 20.7203142962 42.1043714562 33.4052730118
74 5 1 19.8712546057 38.4148334685 37.4282567479
75 5 2 20.4925526527 42.6021784902 33.4929906196
76 5 2 19.8734175572 43.4063298913 33.7014666825
77 5 2 19.0556202498 43.9844564183 33.9668480946
78 5 2 18.1164944851 44.2861586528 34.2838158706
79 5 2 17.1444327826 44.2862325118 34.6423490658
80 5 2 16.2308296841 43.9869665326 35.0286381588
81 5 2 15.4617513862 43.4179332788 35.4263437521
82 5 2 14.9100910362 42.6332938798 35.8180858649
83 5 2 14.6289247165 41.706861389 36.1870280716
84 5 2 14.6466737015 40.7253729213 36.5184120972
85 5 2 14.9645139346 39.7805837965 36.8009029944
86 5 2 15.556268844 38.9609042874 37.027622294
87 5 2 16.3707952673 38.34334126 37.1967749587
88 5 2 17.3366450141 37.9864792028 37.3118129963
89 5 2 18.3685771772 37.9251404079 37.381120818
90 5 2 19.3753276141 38.1672110119 37.4172510222
91 6 1 50.9709637084 8.62826261551 109.489936277
92 6 1 56.4804313576 8.24875474289 109.34946899
93 6 2 50.7674327706 9.12501527991 109.35139554
94 6 2 50.54330112 10.1314677391 109.250062121
95 6 2 50.5495189742 11.1627875433 109.349010648
96 6 2 50.7973274802 12.1301935916 109.624993424
97 6 2 51.2759474427 12.9507303513 110.038626557
98 6 2 51.9535618193 13.5548290324 110.53797969
99 6 2 52.7802157583 13.8926485978 111.063309318
100 6 2 53.6923698504 13.9386186396 111.552504247
101 6 2 54.6186915757 13.6937700543 111.946746866
102 6 2 55.4865570728 13.1856410788 112.195874212
103 6 2 56.2286706088 12.4657672539 112.262950191
104 6 2 56.7891984062 11.6049840974 112.127632206
105 6 2 57.1288577422 10.6869706362 111.788025328
106 6 2 57.2284974638 9.80062228646 111.260855014
107 6 2 57.0908435646 9.03194827406 110.579942628
108 6 2 56.7402507173 8.45623212354 109.793122711
109 7 1 51.1245497245 49.3933827548 58.9374017622
110 7 1 51.6054577523 52.2408920727 63.6467976061
111 7 2 50.6100326321 49.2250846579 58.8176958717
112 7 2 49.6526357718 48.8290646945 58.8146215266
113 7 2 48.7685804275 48.3718976439 59.1025354849
114 7 2 48.0279789379 47.9102857226 59.6609921787
115 7 2 47.487868206 47.5013362849 60.4448867927
116 7 2 47.1870109381 47.1973566407 61.3885664478
117 7 2 47.1423625269 47.0410863836 62.4118142855
118 7 2 47.3475256125 47.0618017915 63.42716102
119 7 2 47.7733331847 47.2726473721 64.3478575302
120 7 2 48.3705070782 47.6694377756 65.0957818096
121 7 2 49.0741495454 48.231039279 65.6085595791
122 7 2 49.8096585129 48.9212960678 65.8452495353
123 7 2 50.4995273609 49.6923257424 65.7900750411
124 7 2 51.0704094444 50.48888367 65.4538621239
125 7 2 51.4598034443 51.2533983864 64.8730527124
126 7 2 51.6217501949 51.9312190801 64.1063830519
127 8 1 36.2321825077 121.045630018 72.4420717644
128 8 1 31.1115476088 120.05028632 74.2604172258
129 8 2 36.5069339794 121.438169155 72.7210094685
130 8 2 36.824866019 122.297185708 73.2052199496
131 8 2 36.8592102783 123.246956529 73.6177800926
132 8 2 36.60119522 124.197538529 73.9391398607
133 8 2 36.0686970773 125.058914687 74.1580618871
134 8 2 35.3046104827 125.749198853 74.2726457315
135 8 2 34.3729387374 126.202099456 74.2905011001
136 8 2 33.3529600807 126.372961801 74.228054241
137 8 2 32.3320016914 126.242838228 74.1090507358
138 8 2 31.3974800479 125.820215139 73.9623911532
139 8 2 30.6289331505 125.140239483 73.8194968395
140 8 2 30.0907708448 124.261515209 73.7114459468
141 8 2 29.8264040368 123.260761673 73.6661407424
142 8 2 29.8542879046 122.225820869 73.7057643918
143 8 2 30.1662397582 121.247650871 73.8447590227
144 8 2 30.7281848702 120.412035246 74.0885093632
145 9 1 64.830616653 74.3316476945 8.8312415741
146 9 1 69.0729104989 75.502078606 12.1705566938
147 9 2 64.8666906748 74.5494133575 8.32265690167
148 9 2 64.9773668155 75.1555330542 7.48969848958
149 9 2 65.1510353976 75.969505976 6.87265933582
150 9 2 65.3906296552 76.915303904 6.52407522494
151 9 2 65.6930738733 77.9048831221 6.47201298185
152 9 2 66.049563731 78.8462093669 6.71751225573
153 9 2 66.4463687916 79.6516465044 7.23449075881
154 9 2 66.8660839957 80.2459443294 7.97212159718
155 9 2 67.2892160854 80.5730974211 8.85946600633
156 9 2 67.6959603629 80.6014498867 9.8119392299
157 9 2 68.0680058355 80.3265807122 10.7390201942
158 9 2 68.3902042141 79.7717067253 11.552502262
159 9 2 68.6519506387 78.9855664442 12.1745330321
160 9 2 68.8481502835 78.0379776918 12.5447103772
161 9 2 68.9796827364 77.0134738873 12.6255879364
162 9 2 69.0533218272 76.0035990516 12.4060882514
163 10 1 13.944904411 117.27271471 20.1856929397
164 10 1 13.534860103 114.122677067 24.7053298251
165 10 2 14.4562636892 117.314265192 19.9755338712
166 10 2 15.4696365183 117.44559395 19.8044249065
167 10 2 16.4822050359 117.620920627 19.9363929505
168 10 2 17.4084192679 117.80646285 20.3620116661
169 10 2 18.1706002021 117.967507129 21.0450892423
170 10 2 18.7060200233 118.071572893 21.9259671811
171 10 2 18.9726195856 118.091373011 22.9269580101
172 10 2 18.9528419911 118.007300942 23.9594262882
173 10 2 18.6552328545 117.809217816 24.9318674886
174 10 2 18.1136613928 117.497376567 25.7582483925
175 10 2 17.3842333371 117.082398876 26.3658487865
176 10 2 16.5401770446 116.584307037 26.7018897161
177 10 2 15.6651689303 116.030698976 26.7383441461
178 10 2 14.8457065848 115.454232773 26.4744915501
179 10 2 14.1632247503 114.889649968 25.9369835842
180 10 2 13.6866727618 114.370608961 25.1774148604
181 11 1 16.2610135713 54.1853035895 116.957639306
182 11 1 17.5496678698 49.1321314905 118.780497747
183 11 2 15.9864705087 54.196950609 116.47610837
184 11 2 15.647017691 54.0770635385 115.504589515
185 11 2 15.549939876 53.7704476562 114.519697333
186 11 2 15.6924705602 53.2898475419 113.612967745
187 11 2 16.0500035661 52.6638659734 112.86881236
188 11 2 16.5783358288 51.9343568594 112.356824583
189 11 2 17.2176963881 51.1526103675 112.125436362
190 11 2 17.8981943509 50.374677963 112.197503745
191 11 2 18.5461892601 49.656263467 112.568223613
192 11 2 19.0910032248 49.0476458026 113.205571473
193 11 2 19.4713630215 48.5890962048 114.053220399
194 11 2 19.6409849846 48.3072076059 115.035675089
195 11 2 19.5727936388 48.2124707599 116.065153055
196 11 2 19.261389556 48.298318039 117.049585761
197 11 2 18.7235414995 48.541722055 117.901010429
198 11 2 17.9966579952 48.9052945441 118.543587605
199 12 1 82.1962688501 31.24080461 110.908051838
200 12 1 78.7175624169 35.1488193718 109.134915285
201 12 2 82.3996258059 31.3226776819 111.417290816
202 12 2 82.8301538714 31.6896638136 112.285286654
203 12 2 83.2786976488 32.3105440846 112.982972959
204 12 2 83.6891203485 33.1359620736 113.45593
205 12 2 84.0087598152 34.0979182931 113.670221517
206 12 2 84.1932285427 35.1159681609 113.615487921
207 12 2 84.2104594763 36.1045543085 113.305890546
208 12 2 84.0436288394 36.9808049068 112.778820874
209 12 2 83.6926895753 37.6720872119 112.091492409
210 12 2 83.174375637 38.1226278452 111.315725814
211 12 2 82.5206767313 38.2985963882 110.531402651
212 12 2 81.7759225432 38.1911889346 109.819184391
213 12 2 80.9927422033 37.8174305428 109.253160337
214 12 2 80.227267283 37.2186234471 108.894094577
215 12 2 79.5340155522 36.45658247 108.783887508
216 12 2 78.9609218302 35.6080007656 108.94175672
217 13 1 82.2436360151 66.7312067677 17.8734131272
218 13 1 77.7855051579 69.6450469291 19.3405858627
219 13 2 82.5889544728 66.6073738244 18.2891079106
220 13 2 83.2184161448 66.6060910316 19.1120455565
221 13 2 83.766455194 66.8999851137 19.940736983
222 13 2 84.1708358555 67.4586011317 20.7139603894
223 13 2 84.3824164424 68.2273554498 21.375549737
224 13 2 84.3696284794 69.1325108876 21.8795141331
225 13 2 84.1213540849 70.0878976674 22.1942297781
226 13 2 83.647939336 71.0027675589 22.3053223901
227 13 2 82.9802512514 71.7900653377 22.2169773825
228 13 2 82.1668643451 72.3743636367 21.9515583748
229 13 2 81.2696331894 72.6987379487 21.5475688081
230 13 2 80.3580545356 72.7299551434 21.0561424597
231 13 2 79.5029328712 72.4615025779 20.536382736
232 13 2 78.7699267802 71.9141817072 20.0499755545
233 13 2 78.2135643382 71.1342120869 19.6555668379
234 13 2 77.8722730245 70.1890185843 19.4034170946
235 14 1 43.4352856751 85.8558986093 59.8742698395
236 14 1 40.0708300891 84.6928156101 64.0986831251
237 14 2 43.6688820493 86.3583491198 59.8931856142
238 14 2 43.8842555775 87.3693343719 59.9637056437
239 14 2 43.7988071806 88.3941297363 60.0899714099
240 14 2 43.4238941226 89.3412636006 60.279253351
241 14 2 42.7972575974 90.1263429904 60.5330781492
242 14 2 41.9795827205 90.6797457637 60.8470895779
243 14 2 41.0489672423 90.9529664828 61.2114455598
244 14 2 40.0938031473 90.9230375553 61.6117152465
245 14 2 39.2047199606 90.594622669 62.0301943509
246 14 2 38.4663241094 89.999591709 62.4475188466
247 14 2 37.9494872729 89.1941159028 62.8444299464
248 14 2 37.7048866182 88.2535479632 63.2035294897
249 14 2 37.7583857121 87.2655538901 63.5108657383
250 14 2 38.1086771261 86.3221224485 63.7572050397
251 14 2 38.7274016051 85.5111806387 63.9388734504
252 14 2 39.5617329373 84.9085793852 64.0580916054
253 15 1 15.7933045639 59.0053258377 11.9215412157
254 15 1 13.6693788136 61.5642256838 16.3327725683
255 15 2 15.4970812662 59.057958837 11.4558555778
256 15 2 14.7653210392 59.0876866176 10.7229891231
257 15 2 13.8562979158 59.0414411809 10.228026163
258 15 2 12.8467904072 58.9416196486 10.017359927
259 15 2 11.8227359079 58.8155024606 10.1114707579
260 15 2 10.8713977315 58.6927668356 10.5030593836
261 15 2 10.0734112934 58.6027817718 11.1577122259
262 15 2 9.49543440764 58.5719311411 12.0170381067
263 15 2 9.18407160581 58.6212088702 13.0039904471
264 15 2 9.16162625824 58.7643053997 14.0298898577
265 15 2 9.42406768156 59.0063598374 15.0025070279
266 15 2 9.94139852463 59.3434915422 15.8344691806
267 15 2 10.660388947 59.7631538345 16.4512238678
268 15 2 11.5094283765 60.2452775918 16.7978342268
269 15 2 12.4050526216 60.7641004963 16.8439863282
270 15 2 13.2595514094 61.290515201 16.5867522099
271 16 1 54.5433165838 75.7713663791 53.5878880458
272 16 1 50.3584289595 74.8711952631 57.0799359542
273 16 2 54.4375593336 76.1386974262 53.1863100411
274 16 2 54.0476062908 76.6936961722 52.403135075
275 16 2 53.4308669174 77.0448392342 51.6482966112
276 16 2 52.6329905692 77.1731720171 50.9999340266
277 16 2 51.7161367532 77.0800484871 50.5264817065
278 16 2 50.7533094544 76.7870077616 50.280431433
279 16 2 49.8217030181 76.3338108759 50.2935478994
280 16 2 48.9956660912 75.7748166712 50.5739734433
281 16 2 48.3399249421 75.1740271316 51.1054858945
282 16 2 47.9036838343 74.5992537744 51.8489771822
283 16 2 47.7161401891 74.1159368113 52.7460179313
284 16 2 47.7838233187 73.781180448 53.7241831435
285 16 2 48.0899992972 73.6385479889 54.7036535428
286 16 2 48.5961962126 73.7140911577 55.6044908886
287 16 2 49.2457107796 74.0139755529 56.3539241331
288 16 2 49.9687766914 74.5239186699 56.8929823078
289 17 1 80.102159544 30.8527697021 35.010793444
290 17 1 75.4040473164 33.4505841129 33.7080682826
291 17 2 80.5054891842 31.1814735987 35.2022628611
292 17 2 81.2103818739 31.9224890252 35.3680109983
293 17 2 81.7870713164 32.7787873206 35.2806466614
294 17 2 82.1730830397 33.6848162653 34.9588446848
295 17 2 82.3233223363 34.5704908236 34.4426482671
296 17 2 82.2141845252 35.3675812079 33.7898191405
297 17 2 81.8457064557 36.0159318415 33.0705727436
298 17 2 81.2415631482 36.4689443779 32.3611782716
299 17 2 80.4469098797 36.6978250166 31.737006943
300 17 2 79.5242664013 36.6942089803 31.2656621148
301 17 2 78.5478184292 36.4709229421 31.0008174166
302 17 2 77.5966558157 36.0608159088 30.9773245434
303 17 2 76.7475637201 35.5137651216 31.2080366163
304 17 2 76.0680238468 34.8921298787 31.682636655
305 17 2 75.6100636685 34.2650676523 32.3685779428
306 17 2 75.4055142606 33.7022305694 33.2140505734
307 18 1 23.5844880835 84.2990192576 50.8868806235
308 18 1 20.1197333459 81.5999240338 54.2377537399
309 18 2 24.1201860552 84.173006667 50.954186628
310 18 2 25.07489191 83.9790105578 51.3068227742
311 18 2 25.892174358 83.8384005863 51.9278930175
312 18 2 26.496709674 83.7450896421 52.7641227292
313 18 2 26.832565465 83.6886794348 53.7426260696
314 18 2 26.8682987588 83.6554082705 54.7775493385
315 18 2 26.5998219466 83.6294053934 55.7778963098
316 18 2 26.0507753576 83.5941375627 56.6558222944
317 18 2 25.2703725063 83.5339160133 57.334640949
318 18 2 24.3289144123 83.435326445 57.7558140315
319 18 2 23.3113818499 83.2884516999 57.8842870048
320 18 2 22.309689578 83.087775685 57.7116841644
321 18 2 21.4143085552 82.832686149 57.2570720618
322 18 2 20.706019754 82.5275304879 56.5652216388
323 18 2 20.2485511911 82.181219491 55.702527476
324 18 2 20.0827692886 81.8064151466 54.7509561043
325 19 1 57.8274050262 25.6093242754 16.4219822251
326 19 1 55.4922387588 24.062478841 11.6604426876
327 19 2 57.4708831959 25.7198249221 16.8319375637
328 19 2 56.7008107519 26.0608522906 17.4353766875
329 19 2 55.8467538459 26.5374035272 17.7773353564
330 19 2 54.973182785 27.0925183128 17.823931361
331 19 2 54.1463465398 27.6620754708 17.5682040091
332 19 2 53.428234327 28.1806374409 17.0307485746
333 19 2 52.8709254584 28.5874147379 16.2578390929
334 19 2 52.511842451 28.8318067508 15.3172106067
335 19 2 52.370340064 28.8780138531 14.2918852977
336 19 2 52.4459411649 28.7083004434 13.2726052364
337 19 2 52.7183802183 28.3246114978 12.3495614854
338 19 2 53.1494504358 27.7483952905 11.6041734246
339 19 2 53.6864862222 27.018648441 11.1016675927
340 19 2 54.2671635039 26.1883614768 10.8851324624
341 19 2 54.8251804017 25.3196888876 10.9715910413
342 19 2 55.2963004699 24.4782839108 11.3504492701
343 20 1 32.1042736335 69.9834850741 17.3153484374
344 20 1 26.7280785437 69.2814372793 18.3744264851
345 20 2 32.2314921494 70.4570561573 17.056645004
346 20 2 32.2983197204 71.2760812462 16.4256283714
347 20 2 32.1281624158 71.9543455837 15.6611324648
348 20 2 31.7244586211 72.4424088853 14.8412132791
349 20 2 31.1119338601 72.7081671824 14.0489784933
350 20 2 30.3343471294 72.7397790137 13.3650124272
351 20 2 29.4505023832 72.5467447421 12.8600309962
352 20 2 28.5288887095 72.1590406227 12.5884361445
353 20 2 27.6414377334 71.6243865466 12.5833572535
354 20 2 26.8569672413 71.0038965009 12.8536314871
355 20 2 26.2349086237 70.3665081918 13.3829983078
356 20 2 25.8198898628 69.7826995572 14.1315815813
357 20 2 25.6376678113 69.3180648906 15.0395241796
358 20 2 25.6927805241 69.0273360971 16.0324437981
359 20 2 25.9681336265 68.9493940262 17.0282127039
360 20 2 26.4265584212 69.1037245863 17.9444434592
361 21 1 58.7814407536 52.1245105382 87.7563379591
362 21 1 56.7208549632 47.0271640558 87.2187171812
363 21 2 58.509611278 52.5172416083 87.4748195213
364 21 2 58.0261616409 53.1015226038 86.7688859707
365 21 2 57.5979083393 53.4402995401 85.8883865055
366 21 2 57.2456325572 53.4970830216 84.9156956909
367 21 2 56.9831903309 53.2610866021 83.9415910872
368 21 2 56.8162496082 52.7482099409 83.0569791176
369 21 2 56.74177363 51.9995895915 82.3446091911
370 21 2 56.7482977229 51.077849514 81.8715313147
371 21 2 56.8169742736 50.0613930697 81.6829846648
372 21 2 56.9232906384 49.0372567629 81.7982741566
373 21 2 57.039303405 48.0931770973 82.2090108536
374 21 2 57.1361853601 47.3095936276 82.8798765957
375 21 2 57.1868530128 46.7523171091 83.7518431558
376 21 2 57.168435182 46.4665310235 84.747552505
377 21 2 57.0643576443 46.4726732251 85.7783677894
378 21 2 56.8658538293 46.7645730851 86.7524523434
379 22 1 19.6656030891 114.615803619 18.6480928266
380 22 1 17.5192121592 112.293377573 23.1776992443
381 22 2 19.2992896486 114.728772033 18.2475504583
382 22 2 18.5499078648 114.716199959 17.5322051597
383 22 2 17.7638494207 114.419774044 16.925827546
384 22 2 16.9975523936 113.872381238 16.4938553318
385 22 2 16.3056536604 113.129783455 16.2858296455
386 22 2 15.7360088924 112.265535018 16.3308794884
387 22 2 15.3253306389 111.364278383 16.6350667033
388 22 2 15.0958420759 110.514029205 17.1808334544
389 22 2 15.0532514238 109.798153946 17.9286025768
390 22 2 15.1862316577 109.287771242 18.8203849294
391 22 2 15.4674529358 109.035269635 19.78506495
392 22 2 15.8560736412 109.069532491 20.7448826489
393 22 2 16.3014629865 109.393305365 21.622521224
394 22 2 16.7478158743 109.982945746 22.3481542806
395 22 2 17.1392393829 110.790578008 22.8658103208
396 22 2 17.4248472569 111.748457153 23.1384743959
397 23 1 73.6519303089 35.8911403487 30.7152366
398 23 1 68.74116833 33.8249657109 32.1758290188
399 23 2 73.7444798939 36.4123057378 30.8801693125
400 23 2 73.7070194695 37.4260076242 31.0910133621
401 23 2 73.3931157784 38.4099366637 31.1734641297
402 23 2 72.8232807986 39.2744825313 31.1374287349
403 23 2 72.0413539609 39.9409163592 31.0036139941
404 23 2 71.1105063023 40.3485666622 30.8016390499
405 23 2 70.1074825943 40.4603493819 30.5673356654
406 23 2 69.1156062626 40.2661479994 30.3394822545
407 23 2 68.2171846793 39.7837356288 30.1562693331
408 23 2 67.486007066 39.0571550454 30.051818556
409 23 2 66.9806188033 38.1527043046 30.053072619
410 23 2 66.7389851762 37.1528938513 30.1773395042
411 23 2 66.7750309393 36.1489259131 30.4307149038
412 23 2 67.0773711133 35.2323816613 30.8075266141
413 23 2 67.6103486948 34.486873832 31.2908515412
414 23 2 68.3172846974 33.9804256485 31.8540581967
415 24 1 77.6006931515 47.3785448649 92.4412802125
416 24 1 77.9530368261 41.9912497876 91.270427213
417 24 2 77.4548488296 47.4950749728 92.9633259535
418 24 2 77.0081601998 47.5606592002 93.8958590566
419 24 2 76.3796241886 47.412342005 94.7060408284
420 24 2 75.6359268808 47.0500478798 95.3298254807
421 24 2 74.8542510053 46.4932047429 95.7201568241
422 24 2 74.1152409361 45.7789731347 95.8512573147
423 24 2 73.4956521729 44.9588591342 95.7209776079
424 24 2 73.0613552828 44.0940197176 95.3509924652
425 24 2 72.8613319734 43.249688463 94.7848251583
426 24 2 72.9232105422 42.4892296844 94.0838804386
427 24 2 73.25074763 41.8683629441 93.3218476585
428 24 2 73.8234858138 41.4300843626 92.5779841838
429 24 2 74.5986182462 41.2007476384 91.9298912967
430 24 2 75.5148903849 41.1876619777 91.4464410463
431 24 2 76.4981831805 41.3784258804 91.1814987455
432 24 2 77.4682688299 41.7420575035 91.1690132914
433 25 1 29.5962064572 111.279268281 104.210338608
434 25 1 27.8676892085 106.036582821 104.421213814
435 25 2 29.2902863206 111.613410186 103.890739413
436 25 2 28.7477329852 112.067523702 103.133859763
437 25 2 28.2714974727 112.259111803 102.233891015
438 25 2 27.8872244756 112.164298292 101.276397061
439 25 2 27.6121765487 111.785311713 100.35218506
440 25 2 27.4536606738 111.150282226 99.5490286128
441 25 2 27.4083622475 110.310677617 98.9436674278
442 25 2 27.4626471987 109.336612148 98.5948127048
443 25 2 27.5938046975 108.31045583 98.5377957652
444 25 2 27.7721171867 107.319326613 98.7813476961
445 25 2 27.9635690578 106.447149823 99.3068035358
446 25 2 28.1329470829 105.767008589 100.069803534
447 25 2 28.247050006 105.334482513 101.004336427
448 25 2 28.2777147489 105.182581737 102.028756184
449 25 2 28.2043834007 105.318738155 103.053223829
450 25 2 28.0159770159 105.724128021 103.987896018
451 26 1 72.3105824532 107.663070049 29.3097514715
452 26 1 66.8602911524 107.857010418 28.4295793683
453 26 2 72.4693585126 107.322822338 29.7176770117
454 26 2 72.6018290359 106.801687487 30.6032954616
455 26 2 72.5006688804 106.45855632 31.5756522049
456 26 2 72.1630055624 106.309952401 32.5438207698
457 26 2 71.6075232294 106.354668655 33.4172564259
458 26 2 70.8727596498 106.573877393 34.1140490943
459 26 2 70.0135935985 106.932846398 34.5683892322
460 26 2 69.0962428034 107.384104681 34.7365661969
461 26 2 68.1922283759 107.871769332 34.6009523542
462 26 2 67.3718558535 108.336639097 34.1716097899
463 26 2 66.6978070373 108.721590415 33.4853731779
464 26 2 66.219426714 108.976784077 32.6024923978
465 26 2 65.9682250099 109.06420794 31.6011409194
466 26 2 65.9550053273 108.961141628 30.5702905004
467 26 2 66.1688796436 108.662227436 29.6016016476
468 26 2 66.578260925 108.179958668 28.7810690077
469 27 1 83.4326912759 20.4181053428 56.0665959803
470 27 1 79.1339167819 23.827593003 55.4232276522
471 27 2 83.8540467091 20.5048926736 55.7168687349
472 27 2 84.4722358392 20.6601578785 54.9000548474
473 27 2 84.821761937 20.8101697878 53.9363235854
474 27 2 84.871009117 20.9604335748 52.912387298
475 27 2 84.6157311146 21.1164314548 51.9204458611
476 27 2 84.0794383217 21.2831229957 51.0497829059
477 27 2 83.3112548772 21.4644930669 50.3786278537
478 27 2 82.3814411331 21.6631886291 49.9670255141
479 27 2 81.3749896112 21.8802774706 49.8513631604
480 27 2 80.3838781618 22.1151508815 50.0410539273
481 27 2 79.4986864289 22.365579136 50.5176788285
482 27 2 78.8003397572 22.627914726 51.2366655986
483 27 2 78.3527330635 22.8974248212 52.1313513353
484 27 2 78.1969069858 23.1687226548 53.1190586453
485 27 2 78.3473071387 23.4362585121 54.1086314674
486 27 2 78.7904674347 23.6948255725 55.008743704
487 28 1 14.0931541122 121.876851901 58.4348596108
488 28 1 19.0319339276 123.456534155 56.5293284581
489 28 2 13.8832565746 121.42432857 58.192894228
490 28 2 13.541171643 120.69432332 57.5421098976
491 28 2 13.3047878267 120.163646138 56.6842320326
492 28 2 13.2113651196 119.869869585 55.6950821216
493 28 2 13.2851329923 119.828973364 54.6624467498
494 28 2 13.5350819412 120.033887808 53.6780760855
495 28 2 13.9541440281 120.455138268 52.8293210981
496 28 2 14.5198371047 121.043531644 52.1911717506
497 28 2 15.1963139997 121.734640205 51.8194218647
498 28 2 15.9376298928 122.454674009 51.7455836631
499 28 2 16.6919300624 123.12720665 51.974015515
500 28 2 17.4061763047 123.680141332 52.4815246819
501 28 2 18.0309812246 124.052282288 53.219481274
502 28 2 18.5251097642 124.19891262 54.1182507346
503 28 2 18.8592376684 124.095870118 55.093540844
504 28 2 19.0186243125 123.741749584 56.0540847298
505 29 1 12.2125545473 22.7602950362 51.0949140033
506 29 1 16.6029553612 22.1001599882 54.3822523603
507 29 2 11.8088600973 23.0768898828 51.3051045886
508 29 2 11.0776481082 23.5273590707 51.8846359068
509 29 2 10.4436576162 23.7702458992 52.6672674011
510 29 2 9.97473158642 23.7970226172 53.5907615252
511 29 2 9.72366779927 23.6188593328 54.5800414805
512 29 2 9.72340647408 23.2656058874 55.554034266
513 29 2 9.9840278561 22.7830711225 56.4330602651
514 29 2 10.4918334291 22.2288475267 57.1460958301
515 29 2 11.2105944985 21.6670618335 57.6372468978
516 29 2 12.0848543401 21.1625300417 57.8708435836
517 29 2 13.0449829322 20.7748496098 57.8346913966
518 29 2 14.0135235459 20.5529673073 57.5411827347
519 29 2 14.9122527192 20.5307178473 57.0261673507
520 29 2 15.6693101161 20.7237399427 56.3456847429
521 29 2 16.2257484047 21.1280508799 55.5708563049
522 29 2 16.5409061481 21.7204095317 54.7814028005
523 30 1 49.6251754607 45.678781957 81.8286779516
524 30 1 47.7962918522 47.3333386027 86.7719175892
525 30 2 50.0594982429 45.9626428547 81.6333108623
526 30 2 50.7381612014 46.680099528 81.3200657155
527 30 2 51.1987081687 47.5847051808 81.1126166497
528 30 2 51.4094186622 48.5969273859 81.0458535855
529 30 2 51.3613441264 49.6274247545 81.1418432908
530 30 2 51.0691235692 50.5851901657 81.4078180531
531 30 2 50.5696492561 51.3858458222 81.8355164766
532 30 2 49.9187040785 51.9593340607 82.401936486
533 30 2 49.185877092 52.2563029212 83.0714319042
534 30 2 48.4482206604 52.2526044456 83.7989615059
535 30 2 47.7832273386 51.9514957001 84.5341944054
536 30 2 47.2617666331 51.3833419019 85.2260975818
537 30 2 46.941625436 50.6028487113 85.8275874026
538 30 2 46.8622409046 49.6840759564 86.2998211711
539 30 2 47.0411058693 48.7136872781 86.6157375344
540 30 2 47.4721744093 47.7830509708 86.7625230531
541 31 1 80.8294290336 97.8100098938 28.0192551951
542 31 1 78.6399925287 93.9490560155 31.3082358884
543 31 2 80.5986824211 97.8467852517 27.5164777474
544 31 2 80.2026095721 97.6829388004 26.5732224002
545 31 2 79.8681958412 97.2284581912 25.7042777279
546 31 2 79.6073588556 96.5218544349 24.9928529535
547 31 2 79.4253099191 95.6246188933 24.5077997823
548 31 2 79.3200790152 94.6156185061 24.2973367531
549 31 2 79.2826943694 93.5839072797 24.3846542472
550 31 2 79.2980002016 92.620609253 24.7658007471
551 31 2 79.3460381359 91.8106127843 25.4100430065
552 31 2 79.4038663525 91.2248332051 26.2626673043
553 31 2 79.4476506737 90.9137490763 27.2499664531
554 31 2 79.4548369852 90.9028012028 28.2859580129
555 31 2 79.4062069836 91.190073772 29.2802213609
556 31 2 79.2876298731 91.7464689752 30.1461392888
557 31 2 79.0913503501 92.5183591947 30.8087929307
558 31 2 78.8166954781 93.4324750182 31.2117904167
559 32 1 15.6295992172 29.074962832 23.5788351091
560 32 1 11.8118211086 26.2605088468 20.7466256994
561 32 2 15.9168481392 28.7745679692 23.9457582227
562 32 2 16.2400369807 28.1444919689 24.702067166
563 32 2 16.262363997 27.4619574158 25.4812321673
564 32 2 15.9839747465 26.7725683447 26.202822179
565 32 2 15.4324242715 26.1225535614 26.79165396
566 32 2 14.6601655297 25.5545530107 27.1846448268
567 32 2 13.7397684477 25.1037312592 27.3365624721
568 32 2 12.7573053656 24.7945723391 27.2241477683
569 32 2 11.8045057736 24.6386480944 26.8482347748
570 32 2 10.9703954142 24.6335634376 26.2336747162
571 32 2 10.3331818233 24.7631746563 25.4270708588
572 32 2 9.95312592286 24.9990608689 24.4925307481
573 32 2 9.86704939857 25.303114512 23.5058229772
574 32 2 10.0849785017 25.6310147434 22.5474710818
575 32 2 10.5892301833 25.936267168 21.6954140355
576 32 2 11.3360238563 26.1744416776 21.0179023204
577 33 1 83.948409126 35.2530157399 89.860765838
578 33 1 81.0481428167 32.0729979026 93.3239916395
579 33 2 83.8971790989 35.7984324346 89.9460752838
580 33 2 83.5712264457 36.7694604683 90.1019901217
581 33 2 82.9727117073 37.6008415499 90.257024364
582 33 2 82.1556583038 38.2177102106 90.4162311558
583 33 2 81.1940088708 38.5647532156 90.5842833256
584 33 2 80.1748855851 38.6112512174 90.765047469
585 33 2 79.1906492118 38.3538787423 90.9612315197
586 33 2 78.3304806672 37.8170072981 91.1741379275
587 33 2 77.6722524165 37.0504839771 91.4035449446
588 33 2 77.2754306069 36.125088026 91.6477268363
589 33 2 77.1756548872 35.1260795072 91.9036111778
590 33 2 77.381489949 34.1454280718 92.1670588973
591 33 2 77.873644878 33.2734301721 92.4332415412
592 33 2 78.6067314693 32.5904787808 92.6970813749
593 33 2 79.5134012409 32.1597357865 92.9537142048
594 33 2 80.5104840679 32.0213749569 93.1989327361