LAMMPS input file for bananas

648 atoms

2 atom types

0 42.5063427673 xlo xhi
0 42.5063427673 ylo yhi
0 42.5063427673 zlo zhi

Masses

 1 1
 2 1

Atoms

1 1 1 14.4950189031 16.6427918272 35.9189881751
2 1 1 11.8370420629 16.5883790292 40.7615277388
3 1 2 15.0439296648 16.572642909 35.953013064
4 1 2 16.0546453466 16.6126896482 36.1772898583
5 1 2 16.965902744 16.8602773641 36.6036234012
6 1 2 17.6960458052 17.2798215566 37.2072158066
7 1 2 18.179926566 17.8200643522 37.9471125171
8 1 2 18.3748432128 18.4187465225 38.7699352021
9 1 2 18.2644322385 19.0082822463 39.61474705
10 1 2 17.8601599326 19.5219193765 40.4186069958
11 1 2 17.2002772597 19.8998237198 41.1223066309
12 1 2 16.3463333861 20.0945327638 41.6757668915
13 1 2 15.3775656378 20.0752817581 42.042602631
14 1 2 14.3836772301 19.8308078387 42.2034390292
15 1 2 13.4566610593 19.3703766084 42.1576775553
16 1 2 12.6824147961 18.7229376017 41.9235505222
17 1 2 12.1329115423 17.9344856119 41.5364592603
18 1 2 11.8596396752 17.0638683891 41.0457473804
19 2 1 40.0298592798 6.67144566516 36.6421220263
20 2 1 36.4751110005 2.86767304044 34.7946725543
21 2 2 39.8205657703 7.02589147962 37.0135328226
22 2 2 39.2585159135 7.71292632633 37.5478857855
23 2 2 38.5104998818 8.36708462095 37.8411415664
24 2 2 37.6332990401 8.91725547237 37.8769288377
25 2 2 36.6954696034 9.30180616699 37.662343838
26 2 2 35.771093921 9.47419982582 37.2273035692
27 2 2 34.9330280687 9.40723711667 36.6218189419
28 2 2 34.2462612115 9.09553540052 35.9114364145
29 2 2 33.7619920159 8.55601934473 35.1712636084
30 2 2 33.5129620275 7.82637828479 34.4791234494
31 2 2 33.5104713668 6.9616309422 33.9084608159
32 2 2 33.7433487539 6.029110615 33.5216482345
33 2 2 34.17896974 5.10232792762 33.364300791
34 2 2 34.7662303395 4.25427053397 33.4611184371
35 2 2 35.440205021 3.55075048786 33.8136346559
36 2 2 36.1280644966 3.04440565017 34.4000766891
37 3 1 4.45926643974 18.2301256234 37.0995003322
38 3 1 8.10023488703 16.578430274 40.9117493141
39 3 2 3.9275376654 18.188861968 37.2509711523
40 3 2 2.99536936859 17.8923258117 37.592407216
41 3 2 2.21838887048 17.3395979244 37.9976765084
42 3 2 1.66822646366 16.5861598817 38.4483454035
43 3 2 1.3958385779 15.7057874531 38.9218422228
44 3 2 1.42686323783 14.7838261384 39.3935145836
45 3 2 1.75928322547 13.9094121532 39.8388763977
46 3 2 2.36360994431 13.167347901 40.2358397129
47 3 2 3.18557122598 12.6303724608 40.5667279709
48 3 2 4.15105809346 12.3525316148 40.8198871781
49 3 2 5.17287959613 12.3642517192 40.9907481362
50 3 2 6.15871003199 12.6695664238 41.0822429123
51 3 2 7.01950418856 13.2457490152 41.1045375891
52 3 2 7.67761357603 14.0453838959 41.0741056531
53 3 2 8.07386387956 15.0006883899 41.0122264807
54 3 2 8.17294853994 16.0296909515 40.9430457799
55 4 1 12.6982494427 13.3263018763 12.418354358
56 4 1 7.33824704143 14.3380756272 11.5438949838
57 4 2 13.04602721 13.6829225146 12.1749330505
58 4 2 13.5674131856 14.3025460802 11.5286565519
59 4 2 13.8725438959 14.8258220478 10.6881046365
60 4 2 13.9242584461 15.2217018676 9.73204251262
61 4 2 13.708494147 15.4707488081 8.74976383533
62 4 2 13.2355682916 15.566909562 7.83295182849
63 4 2 12.5392377615 15.5180659897 7.06732260394
64 4 2 11.6736221772 15.3453167081 6.52481236699
65 4 2 10.7082710396 15.0810540085 6.25702062356
66 4 2 9.72182447848 14.7660113855 6.29050702316
67 4 2 8.79484541525 14.4455507882 6.6243705178
68 4 2 8.00247646779 14.1655279993 7.23033149011
69 4 2 7.40759090169 13.9681130035 8.05530936489
70 4 2 7.05506190018 13.887946306 9.02626076166
71 4 2 6.96767249338 13.948981543 10.0568372036
72 4 2 7.14403894601 14.1623021716 11.0552555502
73 5 1 39.9783949471 35.6733214766 34.1759470259
74 5 1 37.1202853437 32.1047960694 37.2767254724
75 5 2 39.9661496472 36.1985721427 34.3529876384
76 5 2 39.7107960772 37.1446069662 34.6895328482
77 5 2 39.1753912692 37.9667433919 35.0225244401
78 5 2 38.4095077699 38.5877546098 35.3406714876
79 5 2 37.4837256422 38.9487458346 35.6340361053
80 5 2 36.4831992819 39.0145224085 35.8949392596
81 5 2 35.4998958218 38.7767977002 36.1186606927
82 5 2 34.6242125734 38.2549484091 36.3038691613
83 5 2 33.9367375533 37.4942484307 36.452743776
84 5 2 33.5009041014 36.5617422625 36.5707753807
85 5 2 33.3572091013 35.5401340769 36.6662660777
86 5 2 33.5195217971 34.5202494571 36.7495725125
87 5 2 33.9738196499 33.5927568876 36.8321618935
88 5 2 34.6794664536 32.839903565 36.9255667869
89 5 2 35.5729162174 32.3280187847 37.0403339536
90 5 2 36.5735052124 32.1014682041 37.1850630404
91 6 1 24.2880333434 12.3007264129 39.116384931
92 6 1 21.1168156379 9.1502513987 42.3622864253
93 6 2 24.1991117864 12.8461211239 39.1613199273
94 6 2 23.8078647757 13.8039774832 39.2150505782
95 6 2 23.1537900836 14.6070669835 39.241195614
96 6 2 22.2934040279 15.1840934905 39.2562374392
97 6 2 21.3020276558 15.4843659076 39.2776704862
98 6 2 20.2669214317 15.4824185338 39.3224066447
99 6 2 19.2793316794 15.1803321942 39.405233788
100 6 2 18.4261737229 14.6075445785 39.537467898
101 6 2 17.7821097877 13.8181670742 39.7259216436
102 6 2 17.4027437377 12.8860526583 39.9722834241
103 6 2 17.3195529325 11.8980643956 40.2729634764
104 6 2 17.5370191494 10.9461581029 40.619421072
105 6 2 18.0322200818 10.1190008217 40.9989429816
106 6 2 18.7569186463 9.49388905468 41.3958022522
107 6 2 19.6419596634 9.12970339587 41.7926916765
108 6 2 20.6035731679 9.06154172192 42.1723012989
109 7 1 24.4047938454 27.1835217595 34.7458924477
110 7 1 28.136858111 28.2722013731 30.8210403387
111 7 2 24.0767484129 26.7487746768 34.6421487427
112 7 2 23.431661255 26.0439129908 34.2415459799
113 7 2 22.807161537 25.5246848268 33.5982325049
114 7 2 22.2724277946 25.2261808439 32.7625260923
115 7 2 21.8884566347 25.1633732821 31.8022806186
116 7 2 21.702503058 25.3297512827 30.7967013629
117 7 2 21.7437732915 25.6979143352 29.8291256575
118 7 2 22.0207627194 26.2220697613 28.9794269125
119 7 2 22.5204815511 26.8422065946 28.3167343681
120 7 2 23.2096388065 27.4895654199 27.8931321492
121 7 2 24.0376766991 28.0929056105 27.7389119368
122 7 2 24.941378844 28.5849987202 27.8598119615
123 7 2 25.8506322614 28.9087561772 28.23649398
124 7 2 26.6948179883 29.0224327543 28.8263059039
125 7 2 27.4092478075 28.9034315352 29.5671694234
126 7 2 27.9410604061 28.5503635626 30.3832382795
127 8 1 36.455697836 17.8603606093 23.0840276288
128 8 1 34.2713445305 21.0705971365 19.1545272613
129 8 2 36.2922888607 17.3307398411 23.0705763569
130 8 2 35.771716907 16.4355903188 23.0364855225
131 8 2 35.0134771653 15.7319896057 22.9775911969
132 8 2 34.0859364183 15.2806975864 22.8803611228
133 8 2 33.0728927834 15.1194768827 22.7347572441
134 8 2 32.0659377372 15.2596508912 22.5351506473
135 8 2 31.156107798 15.6850716859 22.2808346228
136 8 2 30.4255867901 16.3535918588 21.9760890788
137 8 2 29.940215008 17.2009061433 21.6297904394
138 8 2 29.7434880495 18.1464126673 21.2546025825
139 8 2 29.8525923082 19.1005595987 20.8658225607
140 8 2 30.2568384796 19.9730075551 20.4799863164
141 8 2 30.9186358627 20.6808637975 20.1133614742
142 8 2 31.7769186521 21.1562376817 19.7804645911
143 8 2 32.7527119227 21.3524287091 19.4927380105
144 8 2 33.7563299829 21.2481831521 19.2575069236
145 9 1 27.1938544622 25.2167851484 3.29569009033
146 9 1 24.5677198606 21.8230274492 6.77474409896
147 9 2 27.1118446846 25.756966882 3.3898159588
148 9 2 26.7316659057 26.7044438648 3.56645534927
149 9 2 26.0878593613 27.4960886263 3.74607081667
150 9 2 25.2389496402 28.0603766058 3.93149296436
151 9 2 24.2621559376 28.3465062054 4.12502313231
152 9 2 23.2463537318 28.3290292204 4.32822363612
153 9 2 22.2839740217 28.0101703746 4.5417753661
154 9 2 21.462578489 27.4196245429 4.765415726
155 9 2 20.8568784839 26.6118501429 4.99796256788
156 9 2 20.521925286 25.6611053955 5.23742194179
157 9 2 20.4880923272 24.6546798868 5.48116983897
158 9 2 20.7583067342 23.6849383552 5.7261913632
159 9 2 21.3077825291 22.8409018929 5.96935553058
160 9 2 22.0862798048 22.2001339108 6.20770065032
161 9 2 23.0226839584 21.8216704414 6.43870427494
162 9 2 24.0314875972 21.7406391617 6.6605131146
163 10 1 22.2289051813 28.7869107505 11.8471331439
164 10 1 24.4525314874 25.4596831324 15.6554179926
165 10 2 22.1291751482 28.5473247022 11.3572004607
166 10 2 22.1660894631 28.0282254473 10.4613079962
167 10 2 22.4842771628 27.4436015297 9.66731714363
168 10 2 23.0487346859 26.8292880657 9.05294210862
169 10 2 23.8020116348 26.2238262941 8.67952559491
170 10 2 24.6694472257 25.6649506459 8.58644758112
171 10 2 25.5659754199 25.1861493512 8.78753594083
172 10 2 26.4038784656 24.813612077 9.26980606897
173 10 2 27.1007821366 24.5638428088 9.99464439376
174 10 2 27.587163923 24.4421555564 10.9013279007
175 10 2 27.8126898217 24.4421899963 11.9125588728
176 10 2 27.7508021468 24.546491198 12.9415103713
177 10 2 27.4011401913 24.7281005943 13.8997402786
178 10 2 26.7895731048 24.9530131829 14.7052525612
179 10 2 25.9658419897 25.183276991 15.2899709889
180 10 2 24.9990261322 25.3804522967 15.6059441014
181 11 1 23.4233097918 16.3144929263 17.4239238257
182 11 1 21.8509688118 11.0655150904 16.7210962636
183 11 2 23.5824514906 16.4436860295 17.9390593903
184 11 2 23.6759203181 16.5841208983 18.9613077148
185 11 2 23.5055759209 16.5690097251 19.9831709395
186 11 2 23.0963200012 16.3838158735 20.9167997955
187 11 2 22.4948304075 16.0295052887 21.6823873407
188 11 2 21.7653065741 15.5224584542 22.2154431494
189 11 2 20.983617914 14.8929773542 22.4726714423
190 11 2 20.2303885247 14.1825235293 22.4359173808
191 11 2 19.5836485174 13.4399389673 22.1138218323
192 11 2 19.1117217806 12.7169942869 21.5410337779
193 11 2 18.8669984403 12.0636699841 20.7750521507
194 11 2 18.8811596404 11.5236008435 19.8909849615
195 11 2 19.1622898909 11.1300987444 18.9747034046
196 11 2 19.6941401862 10.903116372 18.1150149278
197 11 2 20.4376090589 10.8474285835 17.3955686708
198 11 2 21.3343065737 10.9521971927 16.8872310698
199 12 1 2.76556658861 5.54196243266 26.1003432673
200 12 1 6.97928624361 4.30243530279 29.450885048
201 12 2 2.68966581417 6.08386988204 26.0111413794
202 12 2 2.5568466767 7.10914091397 26.0791737172
203 12 2 2.46164188795 8.073782051 26.4450337124
204 12 2 2.43083154458 8.896229837 27.0743828788
205 12 2 2.48532636168 9.50788135974 27.9088663962
206 12 2 2.63826171696 9.85934722298 28.8714319967
207 12 2 2.89380039616 9.92495325793 29.8733530728
208 12 2 3.24675316631 9.70508065511 30.8223158707
209 12 2 3.6830517604 9.22613121985 31.630833642
210 12 2 4.18103116233 8.53812091831 32.224220827
211 12 2 4.71340431522 7.71012105585 32.5474004443
212 12 2 5.24974926374 6.82396261214 32.5699242098
213 12 2 5.75928203398 5.96677756607 32.2887478166
214 12 2 6.21366251042 5.22305704881 31.728508416
215 12 2 6.58957756172 4.66695020297 30.9392790062
216 12 2 6.87086597032 4.35550568645 29.9920044127
217 13 1 40.5593931813 19.506998124 8.62017604354
218 13 1 37.7186006235 16.187756215 12.001081522
219 13 2 40.5159040205 20.0480435924 8.73313657691
220 13 2 40.2039299044 21.0131574004 8.9445071037
221 13 2 39.6180705531 21.8412352654 9.15547127382
222 13 2 38.8117059039 22.4567822563 9.36601334987
223 13 2 37.858314363 22.8036750631 9.57615606718
224 13 2 36.8447754449 22.8502774867 9.78595856158
225 13 2 35.8634509364 22.5923239939 9.9955109793
226 13 2 35.0037663673 22.0533085091 10.2049262604
227 13 2 34.3440601118 21.2823430062 10.4143298445
228 13 2 33.9444430555 20.3496810833 10.6238482376
229 13 2 33.8413196486 19.3403145349 10.8335974808
230 13 2 34.0440697376 18.3462265771 11.0436725742
231 13 2 34.5341936172 17.4580078235 11.2541388173
232 13 2 35.2669982296 16.7565991925 11.4650258574
233 13 2 36.1756708163 16.3059143591 11.6763249873
234 13 2 37.1773687234 16.1470141945 11.8879899389
235 14 1 38.0796778796 13.9845930907 13.1757947383
236 14 1 35.3074532493 16.3100130889 9.00144646679
237 14 2 38.1420550058 13.435036023 13.1373537248
238 14 2 38.0264623616 12.4112834026 13.0277228718
239 14 2 37.6218728325 11.4719727293 12.8620340571
240 14 2 36.9681535753 10.7004438188 12.6365472855
241 14 2 36.1278792557 10.1647436272 12.3529729855
242 14 2 35.1806285345 9.91142395341 12.0183161085
243 14 2 34.2157306859 9.96129836679 11.6442376464
244 14 2 33.3241234724 10.307545106 11.2459917632
245 14 2 32.5900644109 10.9163288645 10.8410354188
246 14 2 32.0834509256 11.7298847879 10.4474372135
247 14 2 31.8534493842 12.6717835864 10.0822304838
248 14 2 31.924013715 13.6538978603 9.7598607589
249 14 2 32.2917020704 14.5844346765 9.49086908969
250 14 2 32.9259905421 15.3763022496 9.28093125981
251 14 2 33.772055334 15.955048125 9.13034045333
252 14 2 34.755769804 16.265645321 9.03398053176
253 15 1 8.09304773816 5.50065095907 30.3592047135
254 15 1 9.30689672594 4.02406155241 35.5422776843
255 15 2 8.51546523733 5.46692513591 30.0017028068
256 15 2 9.41892128219 5.52740990486 29.4981566035
257 15 2 10.4051136331 5.72958225179 29.2532055874
258 15 2 11.3930095529 6.03902740834 29.2951025784
259 15 2 12.3014210288 6.41155297624 29.625954967
260 15 2 13.0564048423 6.79721694634 30.2215326317
261 15 2 13.5980022965 7.14487977924 31.0334764495
262 15 2 13.8857042909 7.40686563764 31.993706101
263 15 2 13.9021436173 7.54330791145 33.0206254093
264 15 2 13.6546779348 7.52578295279 34.0265596134
265 15 2 13.1747191388 7.33990081548 34.9257466886
266 15 2 12.5148702504 6.98661686021 35.6421543258
267 15 2 11.7441307919 6.48214467595 36.1164100729
268 15 2 10.9416076648 5.85647825464 36.3112129756
269 15 2 10.1893047669 5.15065811901 36.2147334592
270 15 2 9.56464855631 4.41303058862 35.8416915632
271 16 1 28.3884401076 17.6312400603 12.9337630935
272 16 1 24.0250110247 16.1107099075 9.90614591921
273 16 2 28.5835360287 18.138472047 12.8240594868
274 16 2 28.943623858 19.0107376302 12.3963451911
275 16 2 29.2553046874 19.7233029296 11.7118338574
276 16 2 29.4739521715 20.2210566732 10.8298562503
277 16 2 29.5634197057 20.4684670885 9.82774165707
278 16 2 29.4993350924 20.4528205279 8.79376953044
279 16 2 29.271322002 20.1853802842 7.81912305204
280 16 2 28.8839457472 19.7003599716 6.98957802927
281 16 2 28.3562971675 19.0518050459 6.37768465966
282 16 2 27.7202525497 18.3086667056 6.03615477429
283 16 2 27.0175681899 17.548517175 5.99305729525
284 16 2 26.2960744183 16.8504792027 6.24925982846
285 16 2 25.6053159931 16.2880142348 6.77834958367
286 16 2 24.9920362275 15.9222266005 7.5290408297
287 16 2 24.4959164621 15.7962940156 8.42984945179
288 16 2 24.1459592166 15.9315320493 9.39560853756
289 17 1 24.8929553691 34.5021322002 15.9924710668
290 17 1 23.2835471866 32.3483388123 20.8183357982
291 17 2 24.6476008403 34.9804119019 15.8567092529
292 17 2 23.9917496729 35.7559182202 15.6520162934
293 17 2 23.1319311748 36.3233484983 15.5416304196
294 17 2 22.1454224823 36.6397801432 15.5526587864
295 17 2 21.1210482043 36.6851684169 15.701141965
296 17 2 20.1510842965 36.4641734598 15.9905918877
297 17 2 19.3228473551 36.0057355321 16.4116717452
298 17 2 18.7107359416 35.3604371861 16.9430470113
299 17 2 18.3694493539 34.5958928017 17.553330028
300 17 2 18.3290019304 33.7905857166 18.2039409069
301 17 2 18.5919873239 33.0267146795 18.8526239826
302 17 2 19.133342097 32.3827016544 19.457299304
303 17 2 19.9026301874 31.9260438676 19.9798981089
304 17 2 20.82864002 31.7071616163 20.3898326906
305 17 2 21.8258752518 31.7548025931 20.6667843848
306 17 2 22.8023475351 32.0734216108 20.8025555622
307 18 1 21.5237082146 18.4361802251 11.3001824179
308 18 1 20.8934372501 20.609936636 16.3395804611
309 18 2 21.3611594103 18.7629527226 10.8828345903
310 18 2 20.8606492234 19.3932096706 10.2303656305
311 18 2 20.1501717496 20.0128601546 9.80059237868
312 18 2 19.3001443255 20.5827214062 9.63884707442
313 18 2 18.3937038929 21.0681488124 9.76603192637
314 18 2 17.5191292881 21.4421936793 10.1767139317
315 18 2 16.7617948629 21.6880595341 10.8396200796
316 18 2 16.1963888397 21.8006330782 11.700487803
317 18 2 15.8801056802 21.7869502509 12.6870108663
318 18 2 15.8474329629 21.6655549223 13.7154298855
319 18 2 16.1070079325 21.464808669 14.698166772
320 18 2 16.6408302381 21.2203056925 15.5518072418
321 18 2 17.4059026172 20.9716285024 16.204703804
322 18 2 18.3381499812 20.758740077 16.6035062386
323 18 2 19.3582596884 20.6183413442 16.7180243259
324 18 2 20.3789106793 20.5805259902 16.5439796048
325 19 1 3.8064990976 16.3112958567 30.3648097728
326 19 1 6.39889861576 20.7875779687 32.3039730598
327 19 2 3.87827322072 15.8511389673 30.6656181843
328 19 2 4.24013160148 15.0475609372 31.2103849904
329 19 2 4.86774142271 14.3873494912 31.7040212635
330 19 2 5.70358830091 13.9376406188 32.1194390501
331 19 2 6.67117760139 13.7463835623 32.4366798027
332 19 2 7.68200671979 13.8379703718 32.6447335479
333 19 2 8.64363185791 14.211012635 32.7425424164
334 19 2 9.46809402885 14.8384680274 32.7390970646
335 19 2 10.0799362836 15.6701051475 32.6526172004
336 19 2 10.4230814101 16.6370819754 32.5088909058
337 19 2 10.4659432215 17.6582206381 32.3389241217
338 19 2 10.2043055525 18.6474065566 32.1761145396
339 19 2 9.66170655162 19.5214375588 32.0532074911
340 19 2 8.8872932417 20.2076075356 31.9993112986
341 19 2 7.9513419004 20.6503334082 32.0372441294
342 19 2 6.93885256513 20.8162213772 32.1814541806
343 20 1 29.6123542799 11.7999529124 23.2058698792
344 20 1 26.6414940085 8.02995879464 20.4710710453
345 20 2 29.5385442375 12.3228626969 23.0370533429
346 20 2 29.4405001799 13.2085936008 22.5085477707
347 20 2 29.3861092244 13.9049689871 21.7433334501
348 20 2 29.3614774043 14.3487945129 20.8074583584
349 20 2 29.3499982873 14.4998950801 19.7825257462
350 20 2 29.3338666075 14.3447766881 18.7582562189
351 20 2 29.2957011674 13.8978563761 17.8243099436
352 20 2 29.220129088 13.2001481483 17.0621143645
353 20 2 29.0951870056 12.3155246572 16.5374423086
354 20 2 28.9134115001 11.3248953819 16.2944169689
355 20 2 28.6725193662 10.3188319455 16.3514901928
356 20 2 28.3756157211 9.38931275348 16.6997606458
357 20 2 28.0309109817 8.62133940819 17.3037851443
358 20 2 27.6509725068 8.08518903974 18.1048092069
359 20 2 27.2515791161 7.8300087335 19.0261223686
360 20 2 26.8502828927 7.87933590467 19.9800501344
361 21 1 14.3551949882 22.117916513 38.9286374986
362 21 1 18.9911541875 19.3588520817 40.1175179919
363 21 2 13.9310819146 22.021095829 39.2723458692
364 21 2 13.1898956447 21.6147022458 39.8714595311
365 21 2 12.5823025012 20.9477502255 40.3808273608
366 21 2 12.1726198461 20.0797706475 40.7709832084
367 21 2 12.0071260291 19.0886175157 41.0233267781
368 21 2 12.10984224 18.0633717744 41.1318189944
369 21 2 12.4803430416 17.0962218178 41.1035324484
370 21 2 13.0937951467 16.2740607648 40.95800675
371 21 2 13.9032209063 15.6705663833 40.7254675441
372 21 2 14.8437801967 15.3394855585 40.4440715244
373 21 2 15.8386804232 15.3097354079 40.1564285528
374 21 2 16.8061759599 15.5827675635 39.9057178839
375 21 2 17.6670190455 16.1324358595 39.7317524917
376 21 2 18.3516830041 16.907379485 39.6673502233
377 21 2 18.8066994168 17.8357043851 39.7353425401
378 21 2 18.9995316243 18.8315362118 39.9464934908
379 22 1 20.4641492311 12.8950215062 19.7792124181
380 22 1 20.74296079 15.1637270687 24.8084499594
381 22 2 20.2965786042 13.2380526562 19.3771784604
382 22 2 19.8079422191 13.925548257 18.7754856041
383 22 2 19.1384049156 14.6319012412 18.4201895697
384 22 2 18.3575887178 15.3091525829 18.3487284152
385 22 2 17.5452584235 15.9119957929 18.5726694079
386 22 2 16.784051256 16.4019064843 19.0766546992
387 22 2 16.1519447026 16.7506537677 19.8198011509
388 22 2 15.7151490744 16.9428734207 20.7394267244
389 22 2 15.5220726137 16.9774682963 21.7567637806
390 22 2 15.5989092122 16.8677083245 22.7841385404
391 22 2 15.9472509077 16.6400209939 23.7329623142
392 22 2 16.5439427739 16.3315825568 24.5218061255
393 22 2 17.3431934303 15.9869295127 25.0838227432
394 22 2 18.2807488041 15.653899226 25.372839629
395 22 2 19.2797487173 15.3792696777 25.3675674404
396 22 2 20.257732486 15.2044957777 25.0735404974
397 23 1 34.4639476219 15.9987674502 13.6489156915
398 23 1 33.4038571073 11.8354674542 17.1218297856
399 23 2 34.2122522006 16.4767789008 13.7735594078
400 23 2 33.5498223066 17.234793964 14.0186100366
401 23 2 32.6926226568 17.7567842302 14.2758743632
402 23 2 31.7198740441 17.9952653713 14.5410853979
403 23 2 30.7213292402 17.9285941585 14.8092518298
404 23 2 29.7890922709 17.5629411842 15.0751129715
405 23 2 29.0092233801 16.9317284295 15.3336182567
406 23 2 28.4538948684 16.0925829394 15.5803875856
407 23 2 28.1748127812 15.1220842721 15.8121105597
408 23 2 28.1985040405 14.1087844771 16.0268482152
409 23 2 28.5238985872 13.1451368118 16.2242097549
410 23 2 29.1224269137 12.319068875 16.4053881681
411 23 2 29.9406240985 11.705968241 16.5730514927
412 23 2 30.9050029909 11.3618110834 16.7310996311
413 23 2 31.9287523681 11.3180600971 16.8843088839
414 23 2 32.9196495463 11.5787967571 17.0378966032
415 24 1 21.3562057573 30.9830313329 39.0912889207
416 24 1 22.3648414764 36.3811905019 39.6917242914
417 24 2 20.926907978 30.8607760785 38.7624444931
418 24 2 20.0114331118 30.7883136668 38.2827519047
419 24 2 19.0242202178 30.9349740496 38.0046306268
420 24 2 18.0570042366 31.3006505825 37.9396388553
421 24 2 17.1996974439 31.8652738841 38.0799086011
422 24 2 16.5321941862 32.5906411069 38.3988628365
423 24 2 16.1170887255 33.4238980246 38.8536379202
424 24 2 15.9939699389 34.3023565536 39.3889905034
425 24 2 16.1758128988 35.1592086042 39.9423328138
426 24 2 16.6477962292 35.9296154595 40.4494373635
427 24 2 17.3686530352 36.556617651 40.8502911128
428 24 2 18.2744322694 36.9963266622 41.0945654985
429 24 2 19.2843276996 37.2219252492 41.146203748
430 24 2 20.3080431804 37.2261117611 40.9867073576
431 24 2 21.254022906 37.0217656659 40.6168221817
432 24 2 22.0377964766 36.6407736213 40.0564704501
433 25 1 5.17800799649 18.8250538692 33.1569068202
434 25 1 9.92143103048 19.0193998949 35.9818242711
435 25 2 4.76253501607 19.118438046 33.3775638287
436 25 2 4.0444205875 19.5510871424 33.9863137265
437 25 2 3.46726306596 19.8123382439 34.8061228924
438 25 2 3.09289322744 19.8939392068 35.7687435435
439 25 2 2.96465829264 19.8040125177 36.7929110119
440 25 2 3.10347094365 19.5663149499 37.7917508015
441 25 2 3.50590318887 19.2180721975 38.6806969667
442 25 2 4.14449881525 18.8065858527 39.3852000719
443 25 2 4.9702759488 18.3849219921 39.8475221734
444 25 2 5.91719162142 18.0070743457 40.0319994789
445 25 2 6.90816141095 17.7230429126 39.9282930064
446 25 2 7.86208548023 17.5742765949 39.5523309552
447 25 2 8.70124061047 17.5898952409 38.9448568928
448 25 2 9.35836446494 17.7840354489 38.1677160879
449 25 2 9.78278637115 18.1545620538 37.298218479
450 25 2 9.94504581726 18.683262742 36.4220920808
451 26 1 28.6336986386 27.6752940926 12.4663316237
452 26 1 25.7333735503 24.4152031002 15.8542383764
453 26 2 28.5920372165 28.2179597674 12.5719719539
454 26 2 28.2832263566 29.1874267707 12.7674702746
455 26 2 27.6997560705 30.0214300018 12.9609930043
456 26 2 26.8945592597 30.6441767026 13.154111242
457 26 2 25.9407786059 30.9991295829 13.3484329554
458 26 2 24.9250998109 31.0541600439 13.5454564183
459 26 2 23.9398504266 30.8044766135 13.7464336474
460 26 2 23.0745844457 30.2730616762 13.9522562842
461 26 2 22.407919694 29.5085766905 14.1633743241
462 26 2 22.0003720263 28.5809268271 14.3797551008
463 26 2 21.8888394677 27.5748892987 14.6008862635
464 26 2 22.0832390572 26.5823861447 14.8258224766
465 26 2 22.5656029363 25.694105782 15.053271584
466 26 2 23.2917160712 24.9912369988 15.2817123864
467 26 2 24.1951463348 24.5380688135 15.5095332938
468 26 2 25.1932996177 24.3761307023 15.7351792182
469 27 1 26.2989650469 12.5427980396 14.8689951953
470 27 1 31.006120699 15.4296523792 14.7054447436
471 27 2 26.2028045889 12.2797037229 15.3474470058
472 27 2 26.2424915976 11.7087962603 16.2111249676
473 27 2 26.5686714385 11.0918006466 16.9768750151
474 27 2 27.1580538606 10.4977213391 17.5877335486
475 27 2 27.9633584013 9.99347403495 18.000854916
476 27 2 28.9176238738 9.63778648439 18.1914166793
477 27 2 29.9403117005 9.47584561313 18.1548821135
478 27 2 30.9446467892 9.53517885489 17.9074137172
479 27 2 31.8455268506 9.82314509944 17.4844000436
480 27 2 32.5672792448 10.3262639494 16.937230129
481 27 2 33.0505583399 11.0114444225 16.3286095191
482 27 2 33.2577547077 11.829001106 15.7268448262
483 27 2 33.1764231229 12.7171828496 15.1996177643
484 27 2 32.8204169118 13.6078012174 14.8078161413
485 27 2 32.2286252587 14.4324456817 14.5999840984
486 27 2 31.461428561 15.1287190599 14.6078974413
487 28 1 34.3394662717 19.3556551644 8.88116430288
488 28 1 28.9263319741 20.4582932825 8.86862163377
489 28 2 34.6646059794 19.7798824347 8.73386534972
490 28 2 35.1259386322 20.586066911 8.27485686961
491 28 2 35.3531224954 21.3574410314 7.62154264978
492 28 2 35.3164355393 22.0385485536 6.84167303143
493 28 2 35.0102068538 22.5821607945 6.01453354208
494 28 2 34.453333537 22.9535813985 5.22371823166
495 28 2 33.6875582754 23.1338088173 4.54951029826
496 28 2 32.7736646094 23.1212682506 4.06156448925
497 28 2 31.7859366759 22.9319551845 3.81255825716
498 28 2 30.8053884081 22.5979774463 3.83339035074
499 28 2 29.9123793319 22.1646286613 4.13036447655
500 28 2 29.1792900097 21.68625986 4.68461473299
501 28 2 28.6639247458 21.2213255273 5.45382518679
502 28 2 28.4042428785 20.8270556321 6.37608685722
503 28 2 28.4148988881 20.5542392686 7.37554055424
504 28 2 28.6859066797 20.4425953664 8.36929124087
505 29 1 15.8494457926 31.5306282372 14.5839099294
506 29 1 15.6766572591 27.9564456098 18.7926334567
507 29 2 15.6983819539 32.04869505 14.7110637033
508 29 2 15.228580597 32.9104693862 15.0428493113
509 29 2 14.5599401952 33.5670141484 15.4847984028
510 29 2 13.7609777073 33.9605633909 16.0141640116
511 29 2 12.9120886022 34.0573225069 16.60023139
512 29 2 12.0982190264 33.8505485163 17.207117575
513 29 2 11.4011231899 33.3611646703 17.7970420254
514 29 2 10.8919116885 32.6358533531 18.3337702166
515 29 2 10.6245699629 31.7428011076 18.7859163209
516 29 2 10.6310376704 30.7654836136 19.1298039418
517 29 2 10.9182974702 29.7950571032 19.3516241542
518 29 2 11.4677385727 28.9220497139 19.4486941509
519 29 2 12.2368530635 28.2281100906 19.4297017735
520 29 2 13.1631103859 27.7785653298 19.313913639
521 29 2 14.1696568339 27.6164665898 19.1294190385
522 29 2 15.1723205626 27.758665092 18.9105696743
523 30 1 14.8666173919 27.0707036071 11.6942278483
524 30 1 10.627512175 23.9514947151 13.3730708755
525 30 2 14.7265460229 27.5720348136 11.5033650154
526 30 2 14.3119662741 28.3868887282 11.015936312
527 30 2 13.7206744486 28.9823849313 10.4083112134
528 30 2 12.9923510871 29.3091405656 9.74783725649
529 30 2 12.1791667887 29.3422677584 9.10667900999
530 30 2 11.3410269998 29.0836420846 8.55524046739
531 30 2 10.5401117932 28.561731613 8.15574791095
532 30 2 9.83520832053 27.8290021181 7.95657815239
533 30 2 9.27635252044 26.957134965 7.98784911585
534 30 2 8.90026847659 26.0304935442 8.25867466955
535 30 2 8.72702111558 25.1384337747 8.75633392108
536 30 2 8.75818734248 24.36715955 9.44743069275
537 30 2 8.97671231021 23.7918654843 10.2809374939
538 30 2 9.34846392318 23.469883124 11.1928465404
539 30 2 9.82534388666 23.4354553306 12.1120038929
540 30 2 10.3496717377 23.6966151354 12.9665949484
541 31 1 17.567687524 27.3679225475 6.97900823422
542 31 1 22.4920287147 25.2292051655 8.28083113272
543 31 2 17.3695467508 27.736464174 7.34273738017
544 31 2 17.0490515886 28.257023907 8.17924824474
545 31 2 16.8322344921 28.5258721261 9.15605989133
546 31 2 16.7548128661 28.527916766 10.1892354439
547 31 2 16.8397985908 28.2723841946 11.1897006071
548 31 2 17.0954005507 27.791978254 12.07136255
549 31 2 17.5142764162 27.1398993931 12.7589570377
550 31 2 18.0742018777 26.3849955884 13.1949085654
551 31 2 18.7400963319 25.6054870354 13.3445782111
552 31 2 19.4672203851 24.8818365866 13.1994208815
553 31 2 20.2052537293 24.2894157776 12.7777641739
554 31 2 20.9028817038 23.8916349129 12.1231378651
555 31 2 21.5124724891 23.7341633866 11.3003062882
556 31 2 21.9944186206 23.8407670387 10.3893652369
557 31 2 22.3207471025 24.2111419625 9.47844144818
558 31 2 22.4776690717 24.820942205 8.65566008536
559 32 1 28.2780571585 7.01645756014 26.9478307092
560 32 1 28.4980691355 9.97175073836 31.6100005926
561 32 2 28.5591405003 6.53874355057 26.9606005204
562 32 2 29.2593194746 5.78203150864 27.0634902708
563 32 2 30.1270784633 5.25720851882 27.2756345096
564 32 2 31.0799645454 5.00608904571 27.5956300344
565 32 2 32.027765693 5.0455402099 28.0122432862
566 32 2 32.8807333562 5.36594439503 28.5054342582
567 32 2 33.5577628038 5.93207586779 29.0481830893
568 32 2 33.9937856029 6.68631150938 29.6089528521
569 32 2 34.1457004322 7.55388300878 30.1545640591
570 32 2 33.9963016526 8.44969179442 30.653218885
571 32 2 33.5558475551 9.2860655416 31.0773994529
572 32 2 32.861125345 9.98074927049 31.4063760156
573 32 2 31.9720980865 10.4644026677 31.6280964164
574 32 2 30.9664392295 10.6869202707 31.7402846111
575 32 2 29.9324528827 10.6219984464 31.7506481235
576 32 2 28.9610251293 10.2695328973 31.6761755249
577 33 1 35.3860406168 26.0651642023 37.6194127
578 33 1 39.2797680304 29.9096083752 36.8597240201
579 33 2 35.3382379539 25.6966230863 37.2079835575
580 33 2 35.2404154181 25.200186324 36.3038644814
581 33 2 35.1549246775 24.9904760793 35.292843731
582 33 2 35.1079159619 25.0839504853 34.2620660017
583 33 2 35.1220319674 25.4694332051 33.3004767846
584 33 2 35.214344035 26.1091321238 32.490715223
585 33 2 35.394796144 26.9420840001 31.9015817751
586 33 2 35.665298544 27.8897111015 31.5817672361
587 33 2 36.0195536418 28.8629833558 31.5554147029
588 33 2 36.4436300092 29.7705332032 31.8199189943
589 33 2 36.9172321961 30.5269835059 32.3461641076
590 33 2 37.4155506064 31.0607294458 33.0811770632
591 33 2 37.911522826 31.3204651119 33.952956251
592 33 2 38.3783002902 31.2798598975 34.8770341842
593 33 2 38.7916954579 30.9399584646 35.7641764853
594 33 2 39.1323864419 30.3290855252 36.5285153608