LAMMPS input file for bananas

4320 atoms

2 atom types

0 126.992084157 xlo xhi
0 126.992084157 ylo yhi
0 126.992084157 zlo zhi

Masses

 1 1
 2 1

Atoms

1 1 1 43.4977514914 69.1633549472 32.2333572699
2 1 1 43.408342562 63.7734534734 31.0254834323
3 1 2 43.9731847358 69.4218763881 32.112893654
4 1 2 44.9577878146 69.726560736 32.0071853924
5 1 2 45.9920972603 69.7684832401 32.0507340485
6 1 2 46.9867925958 69.5353714874 32.2230422356
7 1 2 47.8561640646 69.040021702 32.4918764794
8 1 2 48.5259248453 68.3191324042 32.8162052141
9 1 2 48.9399820974 67.4299594378 33.1499386989
10 1 2 49.0655496736 66.4450972532 33.4461299755
11 1 2 48.8961364895 65.4458621174 33.6612539573
12 1 2 48.4521381685 64.5148803533 33.7591746251
13 1 2 47.7789780355 63.7285571717 33.7144387284
14 1 2 46.9429669017 63.15011254 33.5145957814
15 1 2 46.0252590123 62.8238188513 33.1613328912
16 1 2 45.1144550529 62.7709656146 32.6703209829
17 1 2 44.2985264347 62.9879189721 32.0697864362
18 1 2 43.6567969349 63.4464529163 31.3979383266
19 2 1 49.4404978648 76.5192140553 44.3652692403
20 2 1 46.7183041861 80.2961167066 41.3916083652
21 2 2 49.1454500086 76.2853154043 44.7722333317
22 2 2 48.5449992713 76.0712959614 45.5889980477
23 2 2 47.9145703513 76.1620605062 46.4061707255
24 2 2 47.2943312565 76.5476460589 47.1410702139
25 2 2 46.7235212197 77.1912174931 47.7185143429
26 2 2 46.2368741469 78.0324249585 48.0776725779
27 2 2 45.861452715 78.9929046093 48.1776105597
28 2 2 45.614181681 79.9834212582 48.0010211627
29 2 2 45.5003052357 80.9120019262 47.5558019927
30 2 2 45.5129090096 81.6923189334 46.8743355413
31 2 2 45.6335502992 82.251558436 46.0105376083
32 2 2 45.8339390704 82.5370572143 45.0349430208
33 2 2 46.0785165192 82.5211027835 44.0282765721
34 2 2 46.3276961617 82.2034593136 43.0740951727
35 2 2 46.5414720364 81.6113891237 42.251171861
36 2 2 46.6830651406 80.7971677953 41.6263158517
37 3 1 97.6451354345 84.6954260938 27.4280391692
38 3 1 99.7291756476 89.7788715614 26.8506747874
39 3 2 97.9109233102 84.3003598905 27.1440302113
40 3 2 98.3816510145 83.7114126278 26.4333920746
41 3 2 98.7963986307 83.3678633664 25.5482885038
42 3 2 99.1356753445 83.3065313199 24.571262556
43 3 2 99.3868693123 83.5385123573 23.593235767
44 3 2 99.5453971977 84.0481676438 22.7052208968
45 3 2 99.61512193 84.794549079 21.9900263596
46 3 2 99.6080006083 85.7151316068 21.514708458
47 3 2 99.5429946443 86.7315122069 21.3244593806
48 3 2 99.4443414803 87.7565561211 21.4384880544
49 3 2 99.3393454107 88.702338953 21.8482693027
50 3 2 99.2558888689 89.488160742 22.5183208922
51 3 2 99.2198910178 90.0479015493 23.3894376436
52 3 2 99.2529452876 90.336048113 24.3840878255
53 3 2 99.3703511924 90.3318422608 25.4134799643
54 3 2 99.5797198198 90.0411729617 26.3856559502
55 4 1 42.3438080215 117.251627282 7.87945796698
56 4 1 44.1310077413 121.17573926 4.42616194581
57 4 2 42.1227937165 116.80676053 7.63323076008
58 4 2 41.5837941879 116.136009685 7.05614946238
59 4 2 40.9344895849 115.725412033 6.36097818041
60 4 2 40.245511224 115.610307288 5.59579210682
61 4 2 39.5911065788 115.79910178 4.8150480954
62 4 2 39.042371821 116.272502233 4.07462106439
63 4 2 38.6607715946 116.985274298 3.42671114703
64 4 2 38.4925366777 117.870365546 2.91508578891
65 4 2 38.5644501709 118.845017112 2.57109046232
66 4 2 38.8814062887 119.81830695 2.41079161019
67 4 2 39.4259642658 120.69943713 2.4335122328
68 4 2 40.1599380353 121.40600983 2.62189359447
69 4 2 41.0278767874 121.871537673 2.94347742593
70 4 2 41.962119162 122.05150388 3.35366440879
71 4 2 42.8889604012 121.92741985 3.79977928425
72 4 2 43.7353703406 121.508510349 4.22587206212
73 5 1 67.6288019835 92.0687776233 28.7526115437
74 5 1 63.6651868746 91.2461518913 24.9934848852
75 5 2 67.4915512443 92.4125354696 29.1653758418
76 5 2 67.1683632789 93.1963085413 29.7609422296
77 5 2 66.7692135801 94.0963383501 30.0835501533
78 5 2 66.3121242317 95.0258408992 30.1068814632
79 5 2 65.8203983618 95.8953458303 29.8318962731
80 5 2 65.3204961248 96.6208514077 29.2867454483
81 5 2 64.8396229293 97.131481052 28.5242047298
82 5 2 64.4032497373 97.3759435506 27.6168643663
83 5 2 64.0327914548 97.3272081149 26.650512707
84 5 2 63.7436550196 96.9849681644 25.7163168232
85 5 2 63.5438351007 96.3756692706 24.9025128731
86 5 2 63.4331854055 95.5500987139 24.2863636119
87 5 2 63.4034320134 94.5787563588 23.9271160982
88 5 2 63.4389275223 93.5454287796 23.8606014831
89 5 2 63.5180772673 92.539552338 24.0959690961
90 5 2 63.6153076161 91.648061298 24.6148525088
91 6 1 55.3919834295 54.5704364049 14.6186495415
92 6 1 50.1181180633 53.8077764427 13.1617058423
93 6 2 55.4654181274 54.8076956469 15.1143278498
94 6 2 55.44929246 55.4090813294 15.957847402
95 6 2 55.2239451051 56.1600639908 16.6351166417
96 6 2 54.7958994638 56.9840672352 17.0947312557
97 6 2 54.1901543441 57.7978590357 17.305125568
98 6 2 53.4479053866 58.5191381112 17.2574496671
99 6 2 52.6227901919 59.0740354682 16.9663760516
100 6 2 51.7759993964 59.4038473624 16.4687622713
101 6 2 50.9706993098 59.4703859874 15.8202914599
102 6 2 50.2662744747 59.2594601919 15.0903969665
103 6 2 49.7129149237 58.7821689649 14.3559336909
104 6 2 49.347041493 58.0738897926 13.6941729653
105 6 2 49.1879861598 57.1910540948 13.1757594789
106 6 2 49.2362299844 56.2060036524 12.858272203
107 6 2 49.4733592632 55.2003968467 12.780976222
108 6 2 49.863743888 54.2577657168 12.9612438256
109 7 1 56.5792148972 106.95375587 119.35602859
110 7 1 55.5816709673 101.62056907 120.395266643
111 7 2 56.1647623461 107.298476153 119.485560814
112 7 2 55.2607874585 107.790921639 119.602935674
113 7 2 54.25605154 108.040652275 119.563056428
114 7 2 53.235519711 108.017111479 119.38582599
115 7 2 52.2855968468 107.714650624 119.10366647
116 7 2 51.4862520045 107.153043904 118.758563983
117 7 2 50.9037294568 106.375685967 118.398241725
118 7 2 50.5845107038 105.445636604 118.071810136
119 7 2 50.5510778085 104.439873025 117.825290611
120 7 2 50.7998642167 103.442273587 117.697420774
121 7 2 51.3015798391 102.535972507 117.716123648
122 7 2 52.0038807645 101.795782401 117.895962543
123 7 2 52.8361402675 101.281375314 118.236813654
124 7 2 53.7158862456 101.031843771 118.72387734
125 7 2 54.5563183312 101.062137602 119.329027077
126 7 2 55.2742195127 101.361701299 120.013373113
127 8 1 40.721608939 44.8172653662 18.1786943056
128 8 1 44.9587840604 44.6554236291 14.6377699483
129 8 2 40.3321488997 44.4317163413 18.0947037391
130 8 2 39.6129172926 43.7892693035 17.7159984314
131 8 2 38.971461487 43.2866717564 17.0761701995
132 8 2 38.476848546 42.9545087623 16.2285406843
133 8 2 38.1847611975 42.8078307293 15.2453720585
134 8 2 38.1324225034 42.8447816071 14.2112805225
135 8 2 38.3352030764 43.0467680612 13.2155237636
136 8 2 38.7852200897 43.3801542052 12.343865357
137 8 2 39.4520557761 43.7993274222 11.6707576444
138 8 2 40.2855299255 44.2508558329 11.2525556027
139 8 2 41.2202736776 44.6783584687 11.122380238
140 8 2 42.1816877182 45.0276442459 11.2870996947
141 8 2 43.0927418079 45.2516513386 11.7267032426
142 8 2 43.880995882 45.3147367381 12.3961252009
143 8 2 44.4852027689 45.195925018 13.2293525553
144 8 2 44.8608907066 44.8908201881 14.1454418672
145 9 1 65.0763435017 31.0088106673 65.9263555933
146 9 1 68.9498827495 27.4825937526 67.6812000386
147 9 2 65.1628886117 31.538672658 66.0646950409
148 9 2 65.3546154678 32.439716491 66.5388372505
149 9 2 65.5858837892 33.1542014157 67.2526133127
150 9 2 65.8546663132 33.6184902434 68.1389777132
151 9 2 66.1555164581 33.7917504903 69.1151539721
152 9 2 66.4800647639 33.6596761503 70.0901794985
153 9 2 66.8177817468 33.2357916487 70.9731965877
154 9 2 67.1569376332 32.5602191271 71.6817338584
155 9 2 67.4856714975 31.6960214174 72.149223298
156 9 2 67.7930723531 30.7234540332 72.3310677598
157 9 2 68.0701736607 29.7326500943 72.2087058732
158 9 2 68.3107706033 28.8154049339 71.7913038631
159 9 2 68.5119856395 28.0568091988 71.1149200733
160 9 2 68.6745307833 27.5274930651 70.2392183444
161 9 2 68.8026427062 27.2771884857 69.2420298146
162 9 2 68.9036965754 27.3301962563 68.2122588193
163 10 1 17.2266352061 5.98566532331 44.6335537421
164 10 1 14.3243307206 2.97618862122 48.2443250883
165 10 2 17.2151608779 6.53271751469 44.7229060098
166 10 2 16.9610473163 7.52158630126 44.8990162933
167 10 2 16.426368034 8.38846154044 45.0890041772
168 10 2 15.6604458195 9.05515965993 45.2947389334
169 10 2 14.7336806362 9.46174269687 45.5166545486
170 10 2 13.7311328543 9.57198148293 45.7537101672
171 10 2 12.7447702254 9.37665783621 46.0034849628
172 10 2 11.8650852677 8.89440477383 46.2623987903
173 10 2 11.1728471145 8.1700081623 46.5260385059
174 10 2 10.7317396241 7.27032460539 46.7895602139
175 10 2 10.5825567662 6.27818764347 47.0481307746
176 10 2 10.7394843603 5.28485769768 47.2973683324
177 10 2 11.1888070764 4.38170392642 47.5337417095
178 10 2 11.8901585507 3.65187617083 47.7548922643
179 10 2 12.7802006716 3.16272606896 47.9598488744
180 10 2 13.7783966795 2.95966813401 48.1491164523
181 11 1 93.2543386685 83.9671364499 70.43262728
182 11 1 90.7401532498 81.6958649791 66.069349997
183 11 2 93.7757652311 84.1322836712 70.3419502534
184 11 2 94.7754425576 84.2237744469 70.0855819792
185 11 2 95.7266233233 84.0324764266 69.7221122698
186 11 2 96.5414415166 83.5827931731 69.2668032599
187 11 2 97.1444602102 82.9226793726 68.743287991
188 11 2 97.4795474349 82.1192698932 68.1814163229
189 11 2 97.5149924589 81.2527606212 67.6145341986
190 11 2 97.246396136 80.4090988201 67.0764442507
191 11 2 96.6970718762 79.6721492679 66.5983247822
192 11 2 95.9159206906 79.116050206 66.2058879467
193 11 2 94.9729739951 78.7984558371 65.9170361553
194 11 2 93.9530104337 78.7552812986 65.7402303189
195 11 2 92.9478285319 78.9974290938 65.673718659
196 11 2 92.0478795067 79.5097953579 65.7056963781
197 11 2 91.3340228792 80.2526465348 65.8153816345
198 11 2 90.8701563463 81.1652409849 65.9749097527
199 12 1 121.457445592 89.5690754156 14.9545797038
200 12 1 119.880620268 84.2781460883 15.1486925885
201 12 2 121.698493432 89.7580821249 15.4166987263
202 12 2 121.959691891 90.0186481376 16.3848571477
203 12 2 121.963485594 90.1254529115 17.4154047494
204 12 2 121.719932949 90.0535624676 18.4198766923
205 12 2 121.261637321 89.7943304186 19.3121848641
206 12 2 120.640775326 89.3561860636 20.0164645805
207 12 2 119.924341069 88.7638660803 20.4739894481
208 12 2 119.188039812 88.0561598429 20.6485241187
209 12 2 118.50938764 87.2823738741 20.529627044
210 12 2 117.960646077 86.4978376876 20.1336021952
211 12 2 117.602235645 85.7588606507 19.5020129994
212 12 2 117.47722869 85.117599536 18.697893944
213 12 2 117.607423456 84.6173045709 17.8000051524
214 12 2 117.991357231 84.2883772952 16.8956536086
215 12 2 118.604439672 84.1455995415 16.0727353592
216 12 2 119.401194146 84.1867861114 15.4117240236
217 13 1 8.10076616726 68.7155699391 110.038618928
218 13 1 5.30623048779 65.4643883623 113.522636688
219 13 2 8.05953571407 69.2587026939 110.142003881
220 13 2 7.75176090173 70.2280484398 110.339724646
221 13 2 7.16997346133 71.0607524413 110.543630093
222 13 2 6.36746408698 71.6812593104 110.754343027
223 13 2 5.41764168717 72.0333548608 110.971865769
224 13 2 4.40734235892 72.0852898804 111.195579944
225 13 2 3.42891450962 71.8326739872 111.424302845
226 13 2 2.57180154657 71.298875801 111.656395232
227 13 2 1.9143893494 70.5328929559 111.889910747
228 13 2 1.51686160671 69.6048860974 112.122773314
229 13 2 1.41571423367 68.5997839264 112.352966377
230 13 2 1.62042886692 67.6095421757 112.578716693
231 13 2 2.11260863872 66.7247620905 112.798655967
232 13 2 2.84765500227 66.0264323669 113.011945563
233 13 2 3.75883277007 65.5785472491 113.218352946
234 13 2 4.76335284787 65.4222736248 113.418272877
235 14 1 55.2194977887 104.336259384 54.2250094261
236 14 1 52.3867092879 101.610369897 58.1060952123
237 14 2 55.2274883253 104.887323069 54.2853961313
238 14 2 55.0094776833 105.89140721 54.4185742447
239 14 2 54.5083517286 106.783105413 54.5834896839
240 14 2 53.7712059025 107.482953382 54.7841856301
241 14 2 52.8666482271 107.928973454 55.0214439671
242 14 2 51.8785458669 108.082323701 55.2927140143
243 14 2 50.8983808611 107.930838269 55.5923450147
244 14 2 50.0169117804 107.490136259 55.9121011862
245 14 2 49.3159013257 106.802198091 56.2419123911
246 14 2 48.8606638763 105.931539101 56.5707920024
247 14 2 48.6941122591 104.959329138 56.8878383052
248 14 2 48.832846359 103.975994152 57.1832281593
249 14 2 49.2656400837 103.072974108 57.4491123515
250 14 2 49.9544645921 102.33438848 57.6803310314
251 14 2 50.8379545213 101.829368984 57.8748840168
252 14 2 51.8370012758 101.605758406 58.0341131059
253 15 1 50.3735822527 95.6747524806 125.996588758
254 15 1 50.5489420231 101.196270822 125.987915749
255 15 2 50.8360109817 95.4260810444 125.818533218
256 15 2 51.6770129002 95.1083219026 125.30356243
257 15 2 52.4319905715 95.0160410695 124.600040593
258 15 2 53.0457543421 95.1690138213 123.779465562
259 15 2 53.4759858282 95.5646612252 122.924004276
260 15 2 53.6970951233 96.1782852026 122.119003466
261 15 2 53.7025532492 96.9653196929 121.445210522
262 15 2 53.505487256 97.8653927306 120.97141359
263 15 2 53.1374837256 98.8078291887 120.748171714
264 15 2 52.6457097395 99.7180926279 120.803206514
265 15 2 52.0886137257 100.524579093 121.138875434
266 15 2 51.5305980401 101.165143624 121.731956868
267 15 2 51.0361488646 101.5927646 122.53576675
268 15 2 50.6639584632 101.779829636 123.484413675
269 15 2 50.4615755397 101.72065238 124.498804731
270 15 2 50.4610713 101.431990806 125.493854606
271 16 1 118.723250645 99.2611638865 1.26894994913
272 16 1 116.467789503 96.2298932933 5.29912174323
273 16 2 118.638772403 99.8073904775 1.31232650903
274 16 2 118.256126595 100.764157445 1.42016512343
275 16 2 117.614187263 101.563470231 1.57004165684
276 16 2 116.772916602 102.135148746 1.76726579665
277 16 2 115.810445321 102.429761152 2.01283162244
278 16 2 114.815951244 102.423129449 2.30332699836
279 16 2 113.881530988 102.118533233 2.63124458011
280 16 2 113.093805599 101.546410766 2.98566608937
281 16 2 112.526025281 100.761584615 3.35325748568
282 16 2 112.23139283 99.8382647193 3.71948432855
283 16 2 112.238214346 98.8632843521 4.0699365529
284 16 2 112.547319205 97.9281855005 4.39164190796
285 16 2 113.131984463 97.1208750586 4.67424834328
286 16 2 113.940370584 96.5176123479 4.91096757043
287 16 2 114.900246472 96.176058285 5.09919379735
288 16 2 115.925573145 96.1300197427 5.24074123935
289 17 1 107.707862122 56.9924113702 41.0828527651
290 17 1 106.888346591 53.0692763252 44.8848781167
291 17 2 108.177559577 57.2808965505 41.1423690589
292 17 2 108.980744203 57.8443285665 41.4753688066
293 17 2 109.633200504 58.3825377067 42.0737680943
294 17 2 110.087728593 58.832813363 42.8886951221
295 17 2 110.31516921 59.1404598297 43.8515421653
296 17 2 110.307061509 59.26378167 44.8802189853
297 17 2 110.076414247 59.1778841447 45.8866351352
298 17 2 109.656520064 58.8769423002 46.7847291686
299 17 2 109.097920954 58.374731898 47.4983129107
300 17 2 108.463801492 57.7033737906 47.9680158063
301 17 2 107.824229731 56.9104061919 48.1566963879
302 17 2 107.24977069 56.0544516956 48.0528276204
303 17 2 106.805054533 55.199873983 47.6715475603
304 17 2 106.54288571 54.4109112453 47.0532795619
305 17 2 106.499429968 53.7458210439 46.2600477964
306 17 2 106.690917943 53.2515702897 45.3698239151
307 18 1 119.601473979 42.9292567721 102.687252254
308 18 1 121.522448044 39.506215444 106.574492634
309 18 2 119.692979644 43.4674474634 102.783994599
310 18 2 119.771095907 44.4236601881 103.175153244
311 18 2 119.737426665 45.2386396259 103.81399979
312 18 2 119.612626662 45.8377393619 104.650034763
313 18 2 119.425656971 46.1659898391 105.614785493
314 18 2 119.211145264 46.1931086866 106.62804721
315 18 2 119.006229595 45.9162608765 107.605193499
316 18 2 118.847173365 45.3603171295 108.464889769
317 18 2 118.766060007 44.5755870149 109.136506685
318 18 2 118.787868674 43.633233368 109.566557841
319 18 2 118.928197448 42.6187859877 109.723574907
320 18 2 119.191841621 41.6243458239 109.600975878
321 18 2 119.572356616 40.7401902225 109.21766501
322 18 2 120.052645394 40.046544386 108.616309745
323 18 2 120.606516801 39.6062690611 107.859451691
324 18 2 121.201072824 39.4591309498 107.023806118
325 19 1 23.3717127322 117.938737208 39.3128056745
326 19 1 26.9265509064 118.646081086 43.4818320903
327 19 2 23.5823500386 117.685998363 38.8665584456
328 19 2 24.1457260533 117.375071642 38.0545350155
329 19 2 24.8935188596 117.287120967 37.3428324028
330 19 2 25.7690771043 117.417035098 36.8043436936
331 19 2 26.7041039561 117.739844997 36.4961739896
332 19 2 27.6248821789 118.212999695 36.4544354307
333 19 2 28.4589932614 118.780244695 36.6909556703
334 19 2 29.1419181701 119.37674942 37.1921998157
335 19 2 29.6229180875 119.935016348 37.9205040979
336 19 2 29.8696591191 120.391033231 38.8175088234
337 19 2 29.871159442 120.690107636 39.8094777039
338 19 2 29.638790268 120.791852022 40.8140187226
339 19 2 29.205239389 120.673864948 41.7475939455
340 19 2 28.6215317711 120.33377291 42.5331337815
341 19 2 27.9523787662 119.789446678 43.1070616692
342 19 2 27.2702798446 119.077372422 43.4250889107
343 20 1 68.3110103096 124.261440368 16.5339343365
344 20 1 68.7625768401 120.740793712 20.7670331845
345 20 2 68.1580009398 124.775805082 16.6732134133
346 20 2 67.7008604118 125.625697121 17.050249316
347 20 2 67.0666183738 126.265295757 17.5622069633
348 20 2 66.3226002971 126.638870554 18.1789151473
349 20 2 65.5461374457 126.714938435 18.8606549283
350 20 2 64.8175183378 126.489133284 19.5617799106
351 20 2 64.2126706626 125.984603906 20.234876789
352 20 2 63.7962406738 125.249904073 20.8350869452
353 20 2 63.6157008566 124.35456698 21.3241951908
354 20 2 63.6970229376 123.382767479 21.6741129796
355 20 2 64.0423106312 122.425649764 21.8694386034
356 20 2 64.6296078918 121.573019825 21.9088610169
357 20 2 65.4149001487 120.905159871 21.8052793354
358 20 2 66.3361261162 120.485510821 21.5846271156
359 20 2 67.3188345144 120.35488983 21.2835085806
360 20 2 68.2829701042 120.527769923 20.945862243
361 21 1 19.8851346601 75.1458360467 114.513500752
362 21 1 19.8096286623 74.0477041624 119.927038992
363 21 2 19.6750753613 75.6390989606 114.372262029
364 21 2 19.1011500215 76.4916684237 114.241170358
365 21 2 18.3435310894 77.1955218328 114.304840944
366 21 2 17.4774861625 77.6976464002 114.571837413
367 21 2 16.5881655776 77.9634163829 115.032190782
368 21 2 15.7628411859 77.9797491265 115.658308104
369 21 2 15.0829517563 77.7562975142 116.40748749
370 21 2 14.6166800498 77.3245701325 117.225810271
371 21 2 14.4127381429 76.7350593475 118.053055546
372 21 2 14.495927452 76.0526390609 118.828189149
373 21 2 14.8648781505 75.350651627 119.494926755
374 21 2 15.4921740249 74.7042228934 120.006864046
375 21 2 16.3268513897 74.1834146807 120.331706336
376 21 2 17.2990442906 73.8468388346 120.45421215
377 21 2 18.3263525996 73.736314913 120.377582443
378 21 2 19.3213525669 73.8730584454 120.123168837
379 22 1 61.2263950716 27.7744556972 32.0117529743
380 22 1 64.0797153304 32.5012221305 31.8267296055
381 22 2 61.2454698464 27.4717738228 31.5476393849
382 22 2 61.2216531074 27.1091306366 30.577395759
383 22 2 61.1380598602 27.0407601283 29.5469649491
384 22 2 61.0205164619 27.2754518632 28.5446908598
385 22 2 60.8979437346 27.7943720934 27.6563509854
386 22 2 60.7997209108 28.552780403 26.9573380213
387 22 2 60.7530077939 29.484107678 26.5057880211
388 22 2 60.7802692156 30.5060237028 26.3372814504
389 22 2 60.8972274259 31.5279413393 26.461600123
390 22 2 61.1114290524 32.4592733027 26.8618356142
391 22 2 61.4215572449 33.2176889499 27.495930419
392 22 2 61.8175517035 33.7366184981 28.3005113806
393 22 2 62.2815256475 33.9713206823 29.1966659852
394 22 2 62.7893961476 33.9029608019 30.0971350258
395 22 2 63.3130792211 33.5403274537 30.9142660461
396 22 2 63.8230496112 32.9190314743 31.568002628
397 23 1 28.0653428655 121.538254978 69.5688734007
398 23 1 32.951252443 121.814655018 72.1319734143
399 23 2 27.6600012767 121.832677739 69.8063497621
400 23 2 26.9721167032 122.271157719 70.4450986417
401 23 2 26.4375784815 122.542958693 71.2899910202
402 23 2 26.1145453054 122.639041144 72.2697194219
403 23 2 26.0418977487 122.566381827 73.3006864279
404 23 2 26.2356944054 122.347337861 74.2946243574
405 23 2 26.6877081917 122.017608932 75.1666406313
406 23 2 27.3661762223 121.622983367 75.8429555032
407 23 2 28.218694913 121.215164646 76.2676268866
408 23 2 29.1769964271 120.84705877 76.4076493262
409 23 2 30.1631711062 120.567952022 76.2559623575
410 23 2 31.0967687276 120.419018651 75.8320940484
411 23 2 31.9021313265 120.429567949 75.1803810689
412 23 2 32.5152892182 120.614372793 74.3659275216
413 23 2 32.8897916629 120.97232313 73.4686708769
414 23 2 33.000940727 121.486527158 72.5760958861
415 24 1 106.24354528 10.8135700822 31.179024871
416 24 1 103.844754847 6.25226986483 33.1685815671
417 24 2 106.114544588 11.2813170491 31.4472657787
418 24 2 105.652601729 12.0806807587 31.9174534708
419 24 2 104.941071828 12.7139862753 32.3250063311
420 24 2 104.044224061 13.1175078257 32.6510192959
421 24 2 103.043218834 13.2484638311 32.8840194453
422 24 2 102.028710223 13.0889163333 33.0210117288
423 24 2 101.092583105 12.6474059924 33.0677519563
424 24 2 100.319578092 11.9581736276 33.0382221713
425 24 2 99.7795676515 11.0780392589 32.9533562252
426 24 2 99.5211874203 10.0812231133 32.8391317125
427 24 2 99.5674031928 9.05258065031 32.7242021826
428 24 2 99.9134176521 8.0798682129 32.6372854454
429 24 2 100.527107633 7.24574427181 32.6045460195
430 24 2 101.35195206 6.62023532676 32.6472103064
431 24 2 102.312183697 6.25435317815 32.7796318609
432 24 2 103.319695123 6.1754453378 33.0079831025
433 25 1 7.74005904451 94.7112065377 2.32332683247
434 25 1 9.94345920317 89.8984767664 0.741982167228
435 25 2 7.97365971147 94.9389969411 2.77157213201
436 25 2 8.37720271082 95.1510285959 3.70197292534
437 25 2 8.72125512417 95.065754248 4.67552633098
438 25 2 8.99302056858 94.6868312832 5.60073492432
439 25 2 9.18629142509 94.0446823739 6.39050778114
440 25 2 9.30201464667 93.1937225334 6.97009858264
441 25 2 9.34820544593 92.2073993339 7.28391854258
442 25 2 9.33921672993 91.1714983554 7.30060317661
443 25 2 9.29443087106 90.1763240604 7.01587109113
444 25 2 9.23649305561 89.3084687827 6.45291422093
445 25 2 9.18924723557 88.6429200682 5.6602839463
446 25 2 9.17556281611 88.2362257601 4.70746576446
447 25 2 9.21525017044 88.1213398146 3.67854587224
448 25 2 9.32325497725 88.3046186352 2.66454693398
449 25 2 9.50829596203 88.7652417042 1.75513160893
450 25 2 9.77207020854 89.4571093168 1.03043003952
451 26 1 114.4117991 70.058672606 80.2805251502
452 26 1 112.473361099 67.4790498179 84.7644960967
453 26 2 114.506526762 70.6010364467 80.3457150461
454 26 2 114.464632782 71.6151689295 80.5536338111
455 26 2 114.148356677 72.549183249 80.8714964978
456 26 2 113.593513774 73.3185614998 81.2882175933
457 26 2 112.857664128 73.8537919147 81.7837009049
458 26 2 112.014866073 74.1067046757 82.3306712744
459 26 2 111.148926006 74.0548624642 82.8971606362
460 26 2 110.345759656 73.7036055631 83.4494218202
461 26 2 109.685561096 73.0855651039 83.9550045171
462 26 2 109.235493267 72.2576888262 84.3857130367
463 26 2 109.043566254 71.2960504438 84.7201762702
464 26 2 109.134261299 70.2889157289 84.945795609
465 26 2 109.506299396 69.3286973226 85.059893275
466 26 2 110.132757875 68.5035315699 85.0699563921
467 26 2 110.963524325 67.8892451275 84.9929545557
468 26 2 111.929864212 67.5424435666 84.8537930986
469 27 1 33.1673201873 115.923467639 7.00893616862
470 27 1 31.8543073168 110.833647775 5.30960629682
471 27 2 33.2510926179 115.973159903 7.55473324342
472 27 2 33.2004344143 115.955636578 8.58942000311
473 27 2 32.8929754819 115.782608964 9.56357628474
474 27 2 32.3657528793 115.45337715 10.3924868653
475 27 2 31.6758345361 114.981478816 11.0046752791
476 27 2 30.8951176642 114.393455319 11.3484187069
477 27 2 30.1037755184 113.726432512 11.3964623724
478 27 2 29.3829498188 113.024736823 11.1485037421
479 27 2 28.8073549001 112.335855023 10.6312201009
480 27 2 28.4384676994 111.706105928 9.89583698838
481 27 2 28.3189242978 111.176418569 9.01345912813
482 27 2 28.4686337555 110.778601616 8.06858942207
483 27 2 28.8829634542 110.532444104 7.15142673682
484 27 2 29.533161348 110.443911715 6.34964451815
485 27 2 30.3689766354 110.504603023 5.74039959065
486 27 2 31.3232399856 110.69251526 5.38329951946
487 28 1 83.2067162294 106.267752922 38.5478822238
488 28 1 80.5995337144 106.893964275 43.3778356123
489 28 2 83.4568769434 105.777758312 38.4792783742
490 28 2 84.0165985824 104.909832546 38.5621430992
491 28 2 84.6403056484 104.163341381 38.9187807956
492 28 2 85.2585918165 103.594348622 39.5249321516
493 28 2 85.8025448622 103.242739572 40.3335953519
494 28 2 86.2100278261 103.128585589 41.2793101679
495 28 2 86.4313426324 103.250314634 42.2841244827
496 28 2 86.433759935 103.584854563 43.264699418
497 28 2 86.2045023104 104.089736088 44.13990545
498 28 2 85.7519088854 104.706963739 44.8382171489
499 28 2 85.104675248 105.368301999 45.3042325308
500 28 2 84.3092379215 106.001494784 45.5037227997
501 28 2 83.4255417992 106.536851398 45.4267522118
502 28 2 82.521576328 106.913598647 45.0885836912
503 28 2 81.6671784514 107.085420159 44.5282876556
504 28 2 80.9276671594 107.024677995 43.8051808518
505 29 1 8.37381133076 38.3900786395 112.528609943
506 29 1 6.12753981577 34.2540989881 115.421001283
507 29 2 8.01685382586 38.7814143789 112.364844052
508 29 2 7.22611599056 39.3289486965 111.97963001
509 29 2 6.32876883558 39.5954762209 111.535579142
510 29 2 5.39493186931 39.5579466818 111.088376654
511 29 2 4.49805054891 39.2210237972 110.693995014
512 29 2 3.70820192319 38.6166601888 110.40359221
513 29 2 3.08570729692 37.8011849851 110.258848839
514 29 2 2.67563410512 36.8501695724 110.288169027
515 29 2 2.50368813679 35.8515394649 110.504091475
516 29 2 2.57387052101 34.8975601288 110.902146585
517 29 2 2.86811303463 34.0764272318 111.461263854
518 29 2 3.3479249726 33.464227844 112.145692392
519 29 2 3.95790147281 33.1180053042 112.908259526
520 29 2 4.6307735212 33.0705598728 113.694670455
521 29 2 5.2935393426 33.3274590749 114.448457081
522 29 2 5.87411831742 33.8665302361 115.116124923
523 30 1 46.1278191835 52.5670186306 49.8582080802
524 30 1 51.3062545587 53.5691783259 51.5006069574
525 30 2 45.7337946563 52.7809993979 50.1843039116
526 30 2 45.1196874522 53.0757195404 50.9649846342
527 30 2 44.7197640076 53.2247785711 51.9090676046
528 30 2 44.5782191496 53.2314763996 52.9354058546
529 30 2 44.7156971878 53.1120887785 53.9553550671
530 30 2 45.1274102405 52.8943838123 54.8808532687
531 30 2 45.7835746374 52.6150909686 55.6324474431
532 30 2 46.6321256214 52.3165532856 56.1465354613
533 30 2 47.6034629124 52.0428679171 56.3811632458
534 30 2 48.6167945865 51.8358667946 56.3198487723
535 30 2 49.5875010441 51.7313037592 55.9730843624
536 30 2 50.43484786 51.7555956939 55.3773803363
537 30 2 51.0893445108 51.9234146957 54.5919371952
538 30 2 51.4990782501 52.2363507529 53.6932496532
539 30 2 51.6344458166 52.6827668223 52.768134349
540 30 2 51.4908516926 53.2388595141 51.9058167411
541 31 1 41.2720259521 28.587148946 120.268612023
542 31 1 45.8528395933 27.4555153034 123.141509993
543 31 2 40.7982364138 28.4444189684 120.518678444
544 31 2 40.0210019144 27.9706157373 121.013518865
545 31 2 39.4494888751 27.2702272698 121.51975878
546 31 2 39.1395822471 26.4114576874 122.009577826
547 31 2 39.1233222566 25.476947127 122.456652357
548 31 2 39.4059840235 24.5562393131 122.838554777
549 31 2 39.9655967485 23.7376198868 123.138797752
550 31 2 40.7549462928 23.1000694057 123.34833699
551 31 2 41.7058786203 22.7060644767 123.4663956
552 31 2 42.7355118564 22.5958831807 123.500534908
553 31 2 43.7537907488 22.7839338331 123.465965259
554 31 2 44.6716949633 23.2574417044 123.384159636
555 31 2 45.4093530495 23.9776134022 123.280896454
556 31 2 45.9033225096 24.8831727859 123.183909928
557 31 2 46.1123724128 25.8959461228 123.120362173
558 31 2 46.0212414846 26.9279874148 123.114367447
559 32 1 22.1311350814 33.5253396465 41.0205624105
560 32 1 27.5675324049 34.4927044677 40.8538875613
561 32 2 21.8482130127 33.70528763 40.5790248534
562 32 2 21.43378516 34.2427785617 39.7962074645
563 32 2 21.2109986092 34.9945550025 39.118971651
564 32 2 21.2123813395 35.888214217 38.5947376312
565 32 2 21.4500288993 36.8384212345 38.2569799188
566 32 2 21.9145019296 37.7546869032 38.1221762106
567 32 2 22.5756865356 38.5496157344 38.1883054882
568 32 2 23.3855390883 39.1468717678 38.4350322288
569 32 2 24.2824652728 39.4881363905 38.8255599334
570 32 2 25.1969342453 39.5384239222 39.3099850294
571 32 2 26.0578161838 39.289270467 39.8298454482
572 32 2 26.7988655811 38.7595053745 40.3234492859
573 32 2 27.364759346 37.993534995 40.7314978561
574 32 2 27.7161393551 37.0572951593 41.0024906063
575 32 2 27.8331998401 36.0322413044 41.0974192554
576 32 2 27.7174926316 35.0079240273 40.9933232949
577 33 1 114.506809718 33.9684275747 74.5149540614
578 33 1 111.447040087 32.841573542 78.9743263107
579 33 2 114.508654364 34.5011765174 74.3614719799
580 33 2 114.278451906 35.4741994984 74.0900256348
581 33 2 113.764176348 36.3474527757 73.8746204938
582 33 2 113.01291125 37.0502952491 73.7518881802
583 33 2 112.093341136 37.5276183078 73.750013437
584 33 2 111.089491083 37.7448688328 73.8861651625
585 33 2 110.093068059 37.6911986213 74.1649315112
586 33 2 109.195102078 37.3804531717 74.5779016963
587 33 2 108.477649058 36.8499097032 75.1044326094
588 33 2 108.006311641 36.156879437 75.7135303858
589 33 2 107.824259694 35.3734838315 76.3666754117
590 33 2 107.948295481 34.5800809044 77.021333284
591 33 2 108.367322192 33.8579408139 77.6348317081
592 33 2 109.04335538 33.2818383011 78.1682499628
593 33 2 109.914985146 32.9132371724 78.5899664205
594 33 2 110.902973484 32.7946880374 78.8785407736