LAMMPS input file for bananas

648 atoms

2 atom types

0 42.5063427673 xlo xhi
0 42.5063427673 ylo yhi
0 42.5063427673 zlo zhi

Masses

 1 1
 2 1

Atoms

1 1 1 19.4927413825 5.00698780406 13.0371212311
2 1 1 18.0969703881 10.0384531422 14.8410533097
3 1 2 19.8919123028 4.75653104706 13.329209535
4 1 2 20.7514976399 4.49204841595 13.8436140423
5 1 2 21.6856054885 4.51698670207 14.2911300982
6 1 2 22.6046935772 4.83435251825 14.6489094088
7 1 2 23.4205886457 5.42049848953 14.9022829448
8 1 2 24.0545232017 6.2272786482 15.046097984
9 1 2 24.4443149671 7.18643681008 15.0851877686
10 1 2 24.550034627 8.21582794326 15.0339309677
11 1 2 24.3576452792 9.22690546822 14.9149411003
12 1 2 23.880281861 10.1327920419 14.7570053732
13 1 2 23.1570539347 10.8561981952 14.5924608043
14 1 2 22.2494809552 11.3364670617 14.45424679
15 1 2 21.2358849362 11.5351030889 14.3729027666
16 1 2 20.2042516082 11.4392808048 14.373784623
17 1 2 19.2442107543 11.0630138252 14.474753579
18 1 2 18.4388666947 10.4458775508 14.6845481825
19 2 1 42.5893938794 38.2050474806 9.77091928585
20 2 1 38.5986937695 40.493786967 12.8293462112
21 2 2 42.4350330554 38.0547248118 9.26007937032
22 2 2 41.9700283077 37.6676411075 8.41901647039
23 2 2 41.3036420129 37.1861632195 7.78849417836
24 2 2 40.4847920579 36.6685151995 7.42110434501
25 2 2 39.5762929843 36.17621791 7.34545500076
26 2 2 38.6491306116 35.7684815624 7.56356281022
27 2 2 37.7759918688 35.4968088639 8.05066925858
28 2 2 37.0246395758 35.4003006842 8.75749732406
29 2 2 36.4517360427 35.502092115 9.61474294675
30 2 2 36.0976784525 35.8072437685 10.5393919084
31 2 2 35.9829167651 36.3022805162 11.4422863567
32 2 2 36.1060897586 36.9564197108 12.2362513049
33 2 2 36.4441491008 37.7243769422 12.8440403991
34 2 2 36.9544601433 38.5504935905 13.2053767169
35 2 2 37.5786879554 39.3738099602 13.2824468479
36 2 2 38.2481143975 40.1336215939 13.0633474846
37 3 1 4.20434495052 38.9889160529 5.08531431781
38 3 1 4.67259996866 34.2130009984 7.82198450096
39 3 2 4.28875183979 38.9540318491 4.53846867468
40 3 2 4.6423485309 38.7756524056 3.58107629673
41 3 2 5.2143326546 38.4507508373 2.78062445912
42 3 2 5.9442723993 37.9921185747 2.2059119849
43 3 2 6.7573387207 37.4247362438 1.90516215748
44 3 2 7.57112580925 36.7834967484 1.90162729727
45 3 2 8.30316215939 36.1100248757 2.19146937479
46 3 2 8.87842762684 35.4488833077 2.74410983682
47 3 2 9.23619131429 34.8435108524 3.50501675979
48 3 2 9.33554703035 34.3322631119 4.40067528886
49 3 2 9.15914177954 33.9449164723 5.34528832046
50 3 2 8.71475744147 33.6999540655 6.24859667895
51 3 2 8.03460147333 33.6028810811 7.02410599926
52 3 2 7.1723712862 33.6457229832 7.59697045705
53 3 2 6.19835986959 33.8077523678 7.9108147656
54 3 2 5.19304877331 34.0573782106 7.93287263248
55 4 1 28.3117443896 23.1028437665 30.9821583073
56 4 1 26.8833597762 20.671758679 35.7326881467
57 4 2 28.2757640762 23.6560946607 30.9828315058
58 4 2 27.9928257729 24.6490917692 31.0685792177
59 4 2 27.4582537932 25.5130144975 31.2718532427
60 4 2 26.7268516444 26.1733993003 31.5918420241
61 4 2 25.8713633774 26.5743345701 32.0170957667
62 4 2 24.9758431612 26.6835568309 32.5265700558
63 4 2 24.1279939699 26.495391468 33.0915439987
64 4 2 23.4111736912 26.0312699535 33.6782380579
65 4 2 22.8967972776 25.3377764253 34.250892965
66 4 2 22.6378274644 24.4824016672 34.775029083
67 4 2 22.6639473577 23.5473915045 35.2205891329
68 4 2 22.9788548992 22.6222503168 35.5646778342
69 4 2 23.5599258081 21.795582953 35.7936487485
70 4 2 24.360275724 21.147018636 35.9043481162
71 4 2 25.3130335912 20.7399529722 35.904402313
72 4 2 26.3374367767 20.6157696112 35.8115227261
73 5 1 19.2752908541 31.0455795014 23.2180038629
74 5 1 14.461577021 28.6276530195 24.4426596197
75 5 2 19.2497107355 31.595045263 23.1486163823
76 5 2 19.0240023067 32.5684074321 22.8746240391
77 5 2 18.575279071 33.3986557933 22.4470902654
78 5 2 17.9318366467 34.0151784374 21.9185718768
79 5 2 17.1397187856 34.3668439833 21.3508301669
80 5 2 16.2585206083 34.4266620661 20.80920153
81 5 2 15.355956668 34.1942434376 20.3566422234
82 5 2 14.5016889502 33.6958354442 20.0479900735
83 5 2 13.7609773688 32.9819296525 19.9249661535
84 5 2 13.1887314993 32.1226596771 20.0123720198
85 5 2 12.8245057179 31.2014086897 20.3158291164
86 5 2 12.6888939257 30.3072092652 20.8212663947
87 5 2 12.7816524698 29.5266283013 21.4962028528
88 5 2 13.0817223515 28.9358766763 22.2927080912
89 5 2 13.5491486977 28.5938628319 23.1517710413
90 5 2 14.1287225409 28.5368234257 24.0086786662
91 6 1 8.06548628481 17.5042743918 11.6602128304
92 6 1 5.47226483969 13.139631627 13.8380758045
93 6 2 8.21921051414 17.8912480034 12.0262754934
94 6 2 8.28295752272 18.5974732148 12.7816775591
95 6 2 8.05664436758 19.2160150494 13.5814515059
96 6 2 7.56643136766 19.6797525484 14.3676377166
97 6 2 6.86253260738 19.9356747544 15.0835150601
98 6 2 6.01463905708 19.9497125186 15.6787708704
99 6 2 5.10556642737 19.7098438127 16.114086812
100 6 2 4.2237067384 19.2271895043 16.3647226408
101 6 2 3.45497162354 18.5349997197 16.4227712116
102 6 2 2.87496171356 17.6856231842 16.2978791928
103 6 2 2.54207584122 16.7457357749 16.0163677986
104 6 2 2.49218814379 15.7902631934 15.6188336809
105 6 2 2.73537823123 14.8955516879 15.1564486525
106 6 2 3.25501245679 14.1324092971 14.6862955135
107 6 2 4.00926002936 13.5596518864 14.2661651064
108 6 2 4.93490577835 13.2187422392 13.9492888355
109 7 1 40.2110598987 4.83392708078 31.5804726294
110 7 1 38.129672822 1.09128126672 35.0702321066
111 7 2 40.2435048232 5.34915941084 31.7826224772
112 7 2 40.0791374282 6.2747978903 32.2180840438
113 7 2 39.6408004077 7.07517497316 32.7087032371
114 7 2 38.9736117599 7.6740623613 33.2279750501
115 7 2 38.1435486974 8.01359700375 33.7467828662
116 7 2 37.2314340002 8.0595551591 34.2360523607
117 7 2 36.3255692355 7.80447179808 34.6694015482
118 7 2 35.513686306 7.26832102105 35.0255454295
119 7 2 34.8749509212 6.49669547208 35.290236063
120 7 2 34.4727468546 5.55665069135 35.4575612262
121 7 2 34.3488986824 4.53059318187 35.5304832987
122 7 2 34.5198595849 3.50876927698 35.5205692497
123 7 2 34.9752116833 2.58103942827 35.4469363396
124 7 2 35.6786156014 1.82868766562 35.3345096325
125 7 2 36.5711227024 1.31701277509 35.2117501433
126 7 2 37.5765481001 1.08937648913 35.1080606927
127 8 1 14.9945301803 22.0889854819 10.8204138784
128 8 1 12.6044286534 18.3101327975 14.0647440315
129 8 2 14.7967126202 22.6038534755 10.8766344281
130 8 2 14.2187291924 23.4602119195 10.9543221602
131 8 2 13.4146846503 24.1115660221 11.0062857872
132 8 2 12.4548345544 24.499511261 11.0467369452
133 8 2 11.423635725 24.589652128 11.0909366012
134 8 2 10.4120482288 24.3747371872 11.1538040565
135 8 2 9.50924461185 23.8753200244 11.2485570925
136 8 2 8.7944820603 23.1378858425 11.3855072051
137 8 2 8.32987831988 22.2306144594 11.5711197396
138 8 2 8.15474982926 21.2371659 11.8074245914
139 8 2 8.28202813178 20.2490550088 12.0918311866
140 8 2 8.69708119988 19.3573101156 12.4173646063
141 8 2 9.35904710524 18.6441760474 12.7733013312
142 8 2 10.2045584744 18.1756177318 13.146146662
143 8 2 11.1535182554 17.9953076702 13.5208647252
144 8 2 12.11640035 18.1206453061 13.8822489529
145 9 1 12.7682910346 5.18050484432 9.61012433711
146 9 1 8.47399017674 1.76158184363 10.2329699994
147 9 2 12.7286752124 5.65839031222 9.88840055646
148 9 2 12.4428981311 6.56224478006 10.3065256238
149 9 2 11.8987712432 7.40273789301 10.5728849076
150 9 2 11.1376583685 8.09755437275 10.679596025
151 9 2 10.2207010196 8.57765697674 10.6333280966
152 9 2 9.22324551655 8.79357905832 10.4546938745
153 9 2 8.22797537085 8.71993331936 10.1763709445
154 9 2 7.31737490457 8.35772579463 9.84012325151
155 9 2 6.56621102478 7.7342641544 9.4929944281
156 9 2 6.03471841984 6.90066868332 9.1830198926
157 9 2 5.76310932853 5.92721280306 8.95484854934
158 9 2 5.76790830199 4.89691783779 8.84567316031
159 9 2 6.040446035 3.89798584235 8.88184032433
160 9 2 6.54764955004 3.01576022072 9.07644905498
161 9 2 7.23505671074 2.32494690281 9.4281568405
162 9 2 8.03178030009 1.88280509868 9.9213020102
163 10 1 31.0747064308 27.9409419446 3.63644289281
164 10 1 26.9568843467 30.5839260172 6.20084682676
165 10 2 31.3470596424 28.2427841042 3.25948583045
166 10 2 31.6396754641 28.8533000275 2.47520507744
167 10 2 31.6289472047 29.4895338913 1.65756127588
168 10 2 31.3163844525 30.1107380266 0.889537865227
169 10 2 30.731008203 30.6775346843 0.249595518928
170 10 2 29.9267056729 31.1555052112 -0.195479336243
171 10 2 28.9773186242 31.5183272185 -0.3966619245
172 10 2 27.9699128848 31.7501737973 -0.327157598317
173 10 2 26.9968425315 31.8471560989 0.0151559010614
174 10 2 26.1473320622 31.8176777931 0.60753500541
175 10 2 25.4993438218 31.6816690959 1.40444333498
176 10 2 25.1124719425 31.4687701838 2.34170221779
177 10 2 25.0225104981 31.215629571 3.34234040408
178 10 2 25.23819097 30.962563695 4.32360978994
179 10 2 25.7403863956 30.7498821813 5.20452768589
180 10 2 26.4838547403 30.6142137288 5.91325817251
181 11 1 32.3717701698 1.14759221129 6.56697461113
182 11 1 33.4291334647 4.40551297258 10.9012480493
183 11 2 32.690639063 1.23902123759 6.12273936925
184 11 2 33.2229621914 1.63383187153 5.32636843717
185 11 2 33.6445631821 2.29019911711 4.64454393283
186 11 2 33.9340433933 3.15195378124 4.14752268845
187 11 2 34.0820466391 4.14420615656 3.88871721305
188 11 2 34.0921119807 5.18017201815 3.89982728499
189 11 2 33.9803511508 6.16908277363 4.18795060193
190 11 2 33.773980012 7.0244587778 4.73493584463
191 11 2 33.5088379035 7.67199172112 5.49903712119
192 11 2 33.2261209816 8.05631763352 6.41871899352
193 11 2 32.9686272996 8.14606316232 7.41826526808
194 11 2 32.7768558801 7.93670516947 8.4146803245
195 11 2 32.685315337 7.45098300347 9.32525394458
196 11 2 32.7193785077 6.73682586855 10.0751001276
197 11 2 32.8929697869 5.8629842058 10.6039827492
198 11 2 33.207295955 4.91276327424 10.871805923
199 12 1 24.1683842954 12.9646104414 6.49449675429
200 12 1 21.0237908736 17.1103686752 8.34981665641
201 12 2 24.687825047 13.1064557042 6.36242550436
202 12 2 25.5522916576 13.5412892844 5.9921995627
203 12 2 26.2132611952 14.1718871401 5.50340960185
204 12 2 26.6146834224 14.9534815205 4.9543919051
205 12 2 26.7241651452 15.8275417447 4.40897235291
206 12 2 26.5359227667 16.7271091177 3.93064886447
207 12 2 26.0713094457 17.5829000357 3.57680373211
208 12 2 25.3768688139 18.3296210021 3.39347337867
209 12 2 24.5200926481 18.9119199546 3.41115226066
210 12 2 23.5832691751 19.2894314581 3.64201338004
211 12 2 22.65598272 19.4404559061 4.07879874759
212 12 2 21.8269483338 19.3639373821 4.69548092929
213 12 2 21.1759256544 19.0795599029 5.4496353773
214 12 2 20.7664490283 18.6259532739 6.28630731416
215 12 2 20.6400365248 18.0571720849 7.14302071384
216 12 2 20.8124056749 17.4377687792 7.95547282454
217 13 1 15.1825431839 6.45239621638 2.37815144931
218 13 1 12.3108916598 3.72424716691 6.22897101778
219 13 2 15.1736056315 7.00453822511 2.42755701981
220 13 2 14.9242503037 8.00452078267 2.53389053391
221 13 2 14.3941473559 8.88486726406 2.66591685192
222 13 2 13.6324125572 9.56755798509 2.83066965801
223 13 2 12.7092743008 9.99258905583 3.03219970443
224 13 2 11.7096724735 10.1234415748 3.27120559628
225 13 2 10.7255164124 9.95041022928 3.54497011549
226 13 2 9.84730761413 9.49148790854 3.84760788804
227 13 2 9.15589076563 8.79072570017 4.17060182002
228 13 2 8.71508496679 7.91421775109 4.50357940799
229 13 2 8.56586679016 6.94407696279 4.83525816496
230 13 2 8.7226353759 5.9709506198 5.15447398892
231 13 2 9.17189998857 5.08575813194 5.45119874088
232 13 2 9.87350966168 4.37140397321 5.71745428296
233 13 2 10.7643128509 3.8952211605 5.94803966432
234 13 2 11.7639135287 3.70283402907 6.14100517392
235 14 1 27.4910725279 28.4829139237 15.6561339778
236 14 1 23.5382482234 26.9554740831 19.2001569197
237 14 2 27.6069273255 29.0250926539 15.6549180801
238 14 2 27.5903116032 30.0607471855 15.6305537576
239 14 2 27.2718110859 31.046019767 15.595263935
240 14 2 26.6790584775 31.8954327008 15.5709323835
241 14 2 25.8646838276 32.5358915328 15.5784440569
242 14 2 24.9015174421 32.9133474169 15.6357814844
243 14 2 23.875951596 32.9977235226 15.7563857107
244 14 2 22.8800661086 32.7856564581 15.947931181
245 14 2 22.0032355135 32.300802834 16.2116262358
246 14 2 21.3239828092 31.591683027 16.5421029737
247 14 2 20.9028222977 30.7272586767 16.9279065212
248 14 2 20.7767438672 29.7906470169 17.3525391144
249 14 2 20.9558414629 28.8715449615 17.7959638253
250 14 2 21.4223930512 28.0580534711 18.2364308748
251 14 2 22.132475935 27.4286473853 18.6524600666
252 14 2 23.0199701907 27.0450226511 19.0247986499
253 15 1 28.0866894381 22.3950544368 5.89484812528
254 15 1 27.9322544588 22.7149047968 11.4077272865
255 15 2 27.6860523288 22.6751701007 5.63330136176
256 15 2 26.7965218045 23.083878591 5.29397434028
257 15 2 25.7947031161 23.3244148516 5.1846508108
258 15 2 24.7704749699 23.390647784 5.32614255785
259 15 2 23.8157586346 23.2923335721 5.71640022387
260 15 2 23.0161395628 23.0542264322 6.33070010268
261 15 2 22.4430665062 22.7138223325 7.1238976392
262 15 2 22.1473391529 22.3179413355 8.03454223503
263 15 2 22.1544778712 21.9184600748 8.99047830621
264 15 2 22.4623975966 21.5675833381 9.91542207184
265 15 2 23.0415978796 21.313085741 10.7359146169
266 15 2 23.837851773 21.193957198 11.3880174758
267 15 2 24.7771484732 21.2368490959 11.8231404529
268 15 2 25.772439207 21.4536450918 12.0124704889
269 15 2 26.7315714948 21.8403779486 11.9495978941
270 15 2 27.5656886025 22.3775911389 11.6511005743
271 16 1 2.08289233551 27.3722783636 27.1373341292
272 16 1 2.29745614871 29.4602869492 22.0273269299
273 16 2 2.57620974787 27.2706317908 27.3690397462
274 16 2 3.54002151423 26.9683949307 27.5996254583
275 16 2 4.48953538419 26.5575373045 27.5442229953
276 16 2 5.34857504321 26.0904494043 27.2016886629
277 16 2 6.04921065927 25.6246469614 26.5970500693
278 16 2 6.53795050549 25.2175285412 25.7792249255
279 16 2 6.78061658806 24.9211438172 24.8165623268
280 16 2 6.76545987902 24.7774493825 23.7906129154
281 16 2 6.5042312088 24.8144845183 22.7886957573
282 16 2 6.03111020935 25.0438154888 21.8959394428
283 16 2 5.39958993214 25.4594813066 21.1875228432
284 16 2 4.67760109939 26.0385370609 20.7218227573
285 16 2 3.94132040041 26.7431452851 20.5350930227
286 16 2 3.26822718989 27.5240247406 20.6381600747
287 16 2 2.73004145182 28.3249422696 21.0154361463
288 16 2 2.38618671469 29.0878382977 21.6263400514
289 17 1 11.4103256715 11.517684478 10.00637657
290 17 1 8.80051302005 7.83132888409 13.187202158
291 17 2 11.4224617809 12.0337246091 10.2087052283
292 17 2 11.2137082907 12.9647263524 10.6125712277
293 17 2 10.7239724812 13.7750674804 11.0332327358
294 17 2 10.0004019128 14.3876568781 11.451120129
295 17 2 9.11145755912 14.7434279726 11.8469166368
296 17 2 8.14067377238 14.8067224926 12.2033190138
297 17 2 7.17904435037 14.568540625 12.5066146844
298 17 2 6.31672869497 14.0473613234 12.7479316073
299 17 2 5.6348340237 13.2874580016 12.9240469385
300 17 2 5.19802266361 12.3548631293 13.0376807847
301 17 2 5.04861825295 11.3313495497 13.097248273
302 17 2 5.20274805473 10.3069771032 13.1160925345
303 17 2 5.64887299977 9.37188391346 13.1112685136
304 17 2 6.348839442 8.60807053871 13.1019884554
305 17 2 7.24135676135 8.08192583968 13.1078707608
306 17 2 8.24758383995 7.8381758126 13.147151822
307 18 1 30.6178738129 33.3189190228 36.167192104
308 18 1 32.0442656268 35.3947863087 41.0839158573
309 18 2 30.6224689055 33.6834595114 35.7494951979
310 18 2 30.5014809599 34.4944984329 35.1162276431
311 18 2 30.2353282972 35.4175819992 34.728246328
312 18 2 29.8636937102 36.3792038102 34.6251869397
313 18 2 29.4358743873 37.3023448077 34.8207152929
314 18 2 29.0062886055 38.1134933568 35.301281728
315 18 2 28.6295156497 38.749345635 36.0273561258
316 18 2 28.3553210567 39.1625756063 36.9370309728
317 18 2 28.2241206199 39.3261486629 37.951664065
318 18 2 28.2632965976 39.2357857577 38.9830465349
319 18 2 28.4847018932 38.9103534277 39.9414428542
320 18 2 28.8835796948 38.3901441596 40.743769987
321 18 2 29.4389970459 37.7332038375 41.3211701865
322 18 2 30.1157528286 37.0100410156 41.625287195
323 18 2 30.8675862511 36.2972002521 41.632673787
324 18 2 31.6413933956 35.6702852768 41.3469289214
325 19 1 7.80496624901 40.9854854616 19.6108359567
326 19 1 12.0726201077 38.1816162152 17.5028893602
327 19 2 7.31775934725 40.7219507926 19.5871610504
328 19 2 6.4651684889 40.1989478008 19.3169635116
329 19 2 5.76037230273 39.6630966083 18.7788409916
330 19 2 5.27279509979 39.1451177327 18.0255705442
331 19 2 5.05206226139 38.6741026776 17.1295393823
332 19 2 5.12347701821 38.2748623202 16.1761469759
333 19 2 5.48571412849 37.9656654653 15.2560211192
334 19 2 6.11094067024 37.7565736937 14.4567574495
335 19 2 6.9473529377 37.6485242749 13.8549353387
336 19 2 7.92389821066 37.6332447384 13.5091378881
337 19 2 8.95675102 37.6940068866 13.4546122359
338 19 2 9.95695361518 37.8071515257 13.7000568741
339 19 2 10.8385242254 37.9442449379 14.2268288046
340 19 2 11.5262940681 38.0746705388 14.9906427984
341 19 2 11.962758783 38.1684194969 15.9256078763
342 19 2 12.1133198002 38.1988259589 16.9502330947
343 20 1 3.60448565539 26.158751901 27.0538777496
344 20 1 3.68187268852 29.760143541 22.8655629854
345 20 2 3.63660417002 26.3864521356 27.558360249
346 20 2 3.88095384314 26.9253271658 28.408864188
347 20 2 4.33546299411 27.5811379968 29.0697602439
348 20 2 4.94797164618 28.3098982582 29.4786509919
349 20 2 5.65191859037 29.0609724338 29.5961086173
350 20 2 6.37240826175 29.7816911537 29.4092686556
351 20 2 7.03303727005 30.422151867 28.9330025543
352 20 2 7.56285836442 30.9397673253 28.2085621796
353 20 2 7.90284708576 31.3031472969 27.2998198196
354 20 2 8.0112816884 31.4949597025 26.2874463958
355 20 2 7.86754596568 31.5135103879 25.2615585241
356 20 2 7.47400836212 31.3728975416 24.3135046263
357 20 2 6.85580609601 31.1017266827 23.5275387653
358 20 2 6.05855396916 30.7405033439 22.9731411129
359 20 2 5.14418669963 30.3379411011 22.6986850176
360 20 2 4.1853137377 29.9465214607 22.7270279029
361 21 1 19.024005665 11.1715237003 26.8850707543
362 21 1 17.0900078741 7.59311137037 30.6230660464
363 21 2 18.898688083 11.7025696239 26.9833932783
364 21 2 18.4458936007 12.6112151643 27.1902518044
365 21 2 17.7475758088 13.3391907538 27.4265859194
366 21 2 16.8690083871 13.8210563474 27.6899769715
367 21 2 15.891894287 14.0138041686 27.9755401414
368 21 2 14.9069187265 13.900778753 28.2763696808
369 21 2 14.0054834745 13.4931950494 28.5841683523
370 21 2 13.2713758243 12.8291162073 28.890003701
371 21 2 12.7731316052 11.9699842226 29.1851222234
372 21 2 12.5577883254 10.9950196639 29.4617472262
373 21 2 12.6465978287 9.994000929 29.7137876511
374 21 2 13.0330892454 9.05908118455 29.937393258
375 21 2 13.6836587951 8.27638885074 30.1313055648
376 21 2 14.5406326815 7.71817722616 30.2969725543
377 21 2 15.5275239046 7.43623879277 30.4384166943
378 21 2 16.5560038464 7.45718446954 30.5618683007
379 22 1 13.5669347052 15.841100269 9.08741172212
380 22 1 17.2890224165 14.0283599176 5.42981325464
381 22 2 13.1026234541 16.0473680303 8.86548772447
382 22 2 12.385016784 16.5583319273 8.32013776868
383 22 2 11.9170377352 17.1808496906 7.63682433001
384 22 2 11.7384762065 17.8462783561 6.86302171779
385 22 2 11.8627424631 18.482063746 6.0544520877
386 22 2 12.2756448274 19.0183535874 5.27000651614
387 22 2 12.9366832118 19.394364361 4.56637723607
388 22 2 13.7827405935 19.563921556 3.99289029148
389 22 2 14.7338359629 19.4996683537 3.58700960031
390 22 2 15.7004143784 19.1955591279 3.37092221849
391 22 2 16.5915096603 18.6674104881 3.34951604907
392 22 2 17.3230357145 17.9514596375 3.50993432293
393 22 2 17.8254507558 17.1010614487 3.8227474589
394 22 2 18.0500958553 16.1818253102 4.24463549147
395 22 2 17.9736300719 15.2656350052 4.72233656983
396 22 2 17.6001579167 14.4240966977 5.1975016332
397 23 1 33.9212758937 22.4621311901 27.1311848131
398 23 1 30.9819288917 19.566582822 30.8046069112
399 23 2 33.8868130414 23.0127246433 27.1863278011
400 23 2 33.5908891383 24.0000499687 27.2915312074
401 23 2 33.0185573061 24.8559167381 27.4071960594
402 23 2 32.2217570396 25.5043129038 27.5418874058
403 23 2 31.2728875312 25.8881368087 27.7024360813
404 23 2 30.2582086783 25.9744018503 27.893316094
405 23 2 29.2699787242 25.7572431211 28.1162368319
406 23 2 28.3980451658 25.2584519794 28.3699872564
407 23 2 27.7216553943 24.5254898252 28.6505462854
408 23 2 27.3022335074 23.6271621204 28.951449304
409 23 2 27.1777816669 22.6473469546 29.2643773973
410 23 2 27.3594163032 21.6773497821 29.5799155968
411 23 2 27.8303548827 20.807581173 29.8884110299
412 23 2 28.5474455903 20.1193161319 30.1808527531
413 23 2 29.4451005024 19.6772860983 30.4496930759
414 23 2 30.441273751 19.5237788487 30.6895355124
415 24 1 37.4307945423 3.84188751249 15.3613059562
416 24 1 33.3513496698 5.23315483762 11.9058037027
417 24 2 37.3324895567 3.39163853152 15.6695162302
418 24 2 36.9468343193 2.6605849716 16.2942407627
419 24 2 36.3226830198 2.12163936754 16.9214750111
420 24 2 35.5076774114 1.81260702163 17.481577572
421 24 2 34.5668551074 1.75033725721 17.9110259157
422 24 2 33.5767215766 1.92918764782 18.1582062953
423 24 2 32.6182768742 2.32153830936 18.1881182018
424 24 2 31.7696327037 2.88030937864 17.9855645666
425 24 2 31.0988927433 3.54325221713 17.556536934
426 24 2 30.657945178 4.23862320795 16.9276693478
427 24 2 30.4777332303 4.89172299482 16.1438107295
428 24 2 30.5654347679 5.43170512871 15.2639370189
429 24 2 30.9038080604 5.79803353232 14.3557756749
430 24 2 31.452763317 5.94600020174 13.4896324984
431 24 2 32.1530167637 5.85080022149 12.7319834469
432 24 2 32.9314942009 5.50979266628 12.1394155281
433 25 1 27.1166408348 17.2937289724 34.6012591615
434 25 1 26.0618091625 21.0769414753 38.4861818586
435 25 2 27.2573634812 17.5001339303 34.1063089436
436 25 2 27.3264253301 18.0158322991 33.2103537748
437 25 2 27.1478103901 18.6712640543 32.4280776543
438 25 2 26.7486010293 19.4217719527 31.8357772307
439 25 2 26.1759862075 20.2140328153 31.4924333758
440 25 2 25.4929603289 20.9909177916 31.4343352353
441 25 2 24.7725814704 21.6966995023 31.6717725707
442 25 2 24.0913123331 22.2821314405 32.1880978746
443 25 2 23.5220508716 22.7089366597 32.9412437466
444 25 2 23.1274858403 22.9532966145 33.8675572247
445 25 2 22.9543828808 23.008022158 34.8876015823
446 25 2 23.0293219588 22.8832088129 35.9133967737
447 25 2 23.3562746713 22.6053165918 36.85643858
448 25 2 23.9162422459 22.2147582377 37.6357655323
449 25 2 24.6689872286 21.7622157104 38.1853383329
450 25 2 25.5567010197 21.3040206615 38.4600591611
451 26 1 28.8225152634 15.5747695414 6.82925748478
452 26 1 29.8241139423 13.7753850342 11.955367759
453 26 2 29.2507553546 15.5339169191 6.47951032525
454 26 2 30.168042928 15.5658874103 5.99887386546
455 26 2 31.1698663422 15.7214991947 5.78536782187
456 26 2 32.172685351 15.96981495 5.86374723446
457 26 2 33.0928689629 16.2714476349 6.23216256404
458 26 2 33.8543181815 16.5821505126 6.86232827278
459 26 2 34.3954022264 16.8568501222 7.70210097537
460 26 2 34.6745760136 17.0537546047 8.68023216926
461 26 2 34.6741668793 17.1381629189 9.71286234522
462 26 2 34.4019853955 17.0856277485 10.7111645574
463 26 2 33.8906134576 16.8841838102 11.5894407623
464 26 2 33.1944345315 16.5354384565 12.2729329659
465 26 2 32.3846767463 16.0544251705 12.7046372154
466 26 2 31.5429206403 15.4682333035 12.8504993572
467 26 2 30.7536633134 14.8135389538 12.7025189817
468 26 2 30.0966167421 14.1332620374 12.2794786392
469 27 1 39.6924720722 26.6274379377 36.8634433013
470 27 1 38.6792687187 21.3147019584 37.9887194632
471 27 2 39.5856885596 26.978688574 37.2788971014
472 27 2 39.179132956 27.5234817416 38.0607941258
473 27 2 38.5419104453 27.871404755 38.7999470599
474 27 2 37.7379167035 27.9806198301 39.4442421334
475 27 2 36.8462481587 27.8310467738 39.9502116167
476 27 2 35.9539925626 27.4261932393 40.286995788
477 27 2 35.1482911755 26.7928350131 40.4391557146
478 27 2 34.5083960725 25.9785754736 40.4080804699
479 27 2 34.0984465294 25.0475066705 40.2118605239
480 27 2 33.9616228987 24.0743675056 39.8836388442
481 27 2 34.1162108357 23.1377314817 39.4685900042
482 27 2 34.5539346107 22.312844938 39.0198026403
483 27 2 35.2407114186 21.664768547 38.5934405656
484 27 2 36.1197579364 21.2424472086 38.243623588
485 27 2 37.1167659707 21.074248853 38.0174946341
486 27 2 38.1466754514 21.1653787796 37.9509227979
487 28 1 12.4798911441 30.1717008322 26.5505054214
488 28 1 9.66483495936 29.7395417945 21.8169350666
489 28 2 12.2823641509 30.5483273786 26.9061978722
490 28 2 11.9199171836 31.3936832553 27.3831209779
491 28 2 11.5792250484 32.3528313081 27.5765476904
492 28 2 11.2723745642 33.3362931322 27.4665675471
493 28 2 11.0083679738 34.252374188 27.0609248094
494 28 2 10.7923024135 35.0155215124 26.3943125936
495 28 2 10.624905323 35.5541216433 25.525210687
496 28 2 10.5024681409 35.8170279953 24.5305552704
497 28 2 10.4171843303 35.7782227338 23.4987263919
498 28 2 10.3578609241 35.4391882316 22.5214923611
499 28 2 10.3109387333 34.8287719542 21.6856453132
500 28 2 10.2617282315 34.0005570907 21.0650903377
501 28 2 10.1957484658 33.027978589 20.7141092274
502 28 2 10.1000469567 31.997629757 20.6624128375
503 28 2 9.96438028222 31.0013695137 20.912433021
504 28 2 9.78214773845 30.1279496943 21.4391009716
505 29 1 11.4179152557 17.4786587394 34.7409796863
506 29 1 8.49874247928 13.899748484 37.7721218385
507 29 2 11.5265556719 17.9617820275 34.9903202897
508 29 2 11.498322798 18.8637333229 35.4993750772
509 29 2 11.1755519342 19.6874145261 36.0386507546
510 29 2 10.5910061913 20.352145086 36.5770646923
511 29 2 9.80130876047 20.7917323777 37.0836128064
512 29 2 8.88178186098 20.9605049836 37.5301954973
513 29 2 7.91958132119 20.8374755207 37.8941788536
514 29 2 7.0057525577 20.4282535849 38.1604576725
515 29 2 6.22693202897 19.7645344507 38.3228322586
516 29 2 5.65745055374 18.9012101325 38.3845735096
517 29 2 5.3525582555 17.9113661233 38.3581247827
518 29 2 5.34338866149 16.879619848 38.2639677161
519 29 2 5.63412096481 15.8944080111 38.1287553818
520 29 2 6.20159910221 15.0399258272 37.98288293
521 29 2 6.99744236733 14.3884528527 37.8577171521
522 29 2 7.9524551828 13.9937648969 37.7827374814
523 30 1 2.94411507089 5.90387490765 1.97142330408
524 30 1 8.13059977324 7.72170344624 1.41118505298
525 30 2 2.55734492579 6.22579105476 1.73869935357
526 30 2 1.94345753825 6.99842234859 1.42305212899
527 30 2 1.52736443395 7.9354408195 1.27367701421
528 30 2 1.35581087423 8.95711183174 1.28808985797
529 30 2 1.45325299452 9.97598489669 1.44887767431
530 30 2 1.81962869298 10.9048645511 1.72528578979
531 30 2 2.43036329092 11.6647579907 2.07602104969
532 30 2 3.23860944909 12.1920750529 2.45301557878
533 30 2 4.17951717739 12.4444242902 2.80580803958
534 30 2 5.17614473822 12.4044768377 3.08614304848
535 30 2 6.14647168014 12.0815458923 3.25236952494
536 30 2 7.01087478284 11.5107378401 3.27323707616
537 30 2 7.69938550084 10.7497524027 3.13074438688
538 30 2 8.15806740942 9.87362346239 2.82177999113
539 30 2 8.35393236554 8.96787992377 2.35840587403
540 30 2 8.27794728895 8.12074998301 1.76675805414
541 31 1 34.475903984 3.38455964103 0.959229372908
542 31 1 34.0116599805 1.1760508382 6.00154604626
543 31 2 34.6217063688 3.91940116419 0.950995433934
544 31 2 34.7179424673 4.94162095554 1.08975898349
545 31 2 34.588799089 5.9119306222 1.42927503588
546 31 2 34.258710612 6.74270041742 1.95302417035
547 31 2 33.7704270228 7.3590192808 2.62769461315
548 31 2 33.1811173699 7.7055227812 3.40621851665
549 31 2 32.5571589571 7.75143943664 4.23206206784
550 31 2 31.9680872303 7.49339545268 5.04437839431
551 31 2 31.4802578072 6.95572223474 5.78355359402
552 31 2 31.1507983401 6.18823864554 6.39664038316
553 31 2 31.022401483 5.2617101489 6.84218409951
554 31 2 31.1194335706 4.26139872687 7.09400118417
555 31 2 31.4457136915 3.27929147795 7.1435657429
556 31 2 31.9841655891 2.4057162389 7.00078665864
557 31 2 32.6983741162 1.72110844387 6.6931044233
558 31 2 33.5359043788 1.28867964957 6.26299001025
559 32 1 11.2877098087 35.4086382615 27.3626161686
560 32 1 11.754457292 35.0787283754 21.8679553679
561 32 2 10.7812524021 35.3010924086 27.5608997356
562 32 2 9.76729893158 35.2564102434 27.7691108661
563 32 2 8.74243935031 35.4057446616 27.7406138237
564 32 2 7.79436828789 35.7211699249 27.4665368728
565 32 2 7.00378130562 36.1596215586 26.9603922299
566 32 2 6.43701971186 36.6668215632 26.2568444616
567 32 2 6.14002372899 37.1822257088 25.4085509015
568 32 2 6.134145165 37.64454198 24.4813620755
569 32 2 6.41420125325 37.9973171792 23.548319602
570 32 2 6.94894704777 38.194082485 22.6829986437
571 32 2 7.68392331658 38.2025889604 21.9528017282
572 32 2 8.54642035515 38.007746958 21.4128151879
573 32 2 9.45210528163 37.6130015005 21.1007881877
574 32 2 10.3127087536 37.0400182761 21.0336919897
575 32 2 11.0440704827 36.3267088692 21.2061730683
576 32 2 11.5738102201 35.5237752208 21.5910410691
577 33 1 5.38365527783 24.7149492817 34.4354550716
578 33 1 6.57007841252 19.356926073 35.0694728172
579 33 2 5.40619540173 25.0158168353 34.9005918752
580 33 2 5.3114544453 25.4069098138 35.8553276735
581 33 2 5.05977893781 25.5383361019 36.8517395265
582 33 2 4.68927042604 25.3903838041 37.8079212935
583 33 2 4.24886176747 24.9688056364 38.6456336983
584 33 2 3.79385703115 24.3042945815 39.2974356306
585 33 2 3.3808906796 23.4496863053 39.7128312228
586 33 2 3.06276548893 22.4751433276 39.8628724132
587 33 2 2.88363971692 21.4617598955 39.7427974847
588 33 2 2.87500219585 20.4941704597 39.3724650824
589 33 2 3.05280220961 19.6528354706 38.7945441514
590 33 2 3.41599575908 19.0067076233 38.0706247763
591 33 2 3.9466407199 18.6069470035 37.2756044095
592 33 2 4.61153221909 18.4822579828 36.490861169
593 33 2 5.36522917053 18.6362728914 35.79683644
594 33 2 6.15419610848 19.0472209417 35.2657028579