LAMMPS input file for bananas

4320 atoms

2 atom types

0 80.0 xlo xhi
0 80.0 ylo yhi
0 80.0 zlo zhi

Masses

 1 1
 2 1

Atoms

1 1 1 13.0427118625 59.3771413021 27.7035371218
2 1 1 18.4024599514 59.2706882509 26.3694609495
3 1 2 12.889243092 59.8056940101 28.0200359385
4 1 2 12.7849926271 60.5395917766 28.7438977485
5 1 2 12.9345618372 61.1398435026 29.575027659
6 1 2 13.3349181448 61.5659888923 30.430343358
7 1 2 13.9601703987 61.7934369772 31.2245580637
8 1 2 14.7639287834 61.8157075172 31.8779541865
9 1 2 15.6835331266 61.6450216569 32.3236493741
10 1 2 16.6457642065 61.3111880011 32.5136926595
11 1 2 17.5735174882 60.85888564 32.4234350632
12 1 2 18.3928309959 60.3435917698 32.0537762819
13 1 2 19.0396267494 59.8265250943 31.4310826836
14 1 2 19.4655513009 59.3690659038 30.6047840834
15 1 2 19.6423830219 59.0271614256 29.6428683483
16 1 2 19.5646044301 58.8462263839 28.6256844846
17 1 2 19.2499050923 58.8570035691 27.6386190409
18 1 2 18.7375692683 59.0727617142 26.7643133521
19 2 1 47.7393111414 8.04376086412 42.8368939254
20 2 1 49.4854993663 6.68055169459 47.8975735739
21 2 2 47.5746027994 8.57014102266 42.7805318917
22 2 2 47.1384466324 9.50600184379 42.8664523938
23 2 2 46.5817675736 10.3126193652 43.2024979425
24 2 2 45.9680808841 10.9257488358 43.768987934
25 2 2 45.366097918 11.2987814232 44.5252373694
26 2 2 44.8434632665 11.4069924842 45.4132651834
27 2 2 44.460589134 11.24979515 46.3630790641
28 2 2 44.2651489271 10.8507938175 47.2990550645
29 2 2 44.2877319509 10.2556326717 48.1468305235
30 2 2 44.5390552761 9.52783534069 48.8400820235
31 2 2 45.0089869059 8.74301488588 49.326570593
32 2 2 45.667469281 7.98198187425 49.5729031487
33 2 2 46.4672589457 7.32337871085 49.5675761862
34 2 2 47.3482326625 6.83651159384 49.3220242937
35 2 2 48.2428674844 6.57503343977 48.8695779194
36 2 2 49.0823952913 6.57205356361 48.2624253908
37 3 1 55.3229336023 19.6422671506 56.3269783485
38 3 1 59.1195758022 22.3797420046 53.3927441228
39 3 2 54.819068422 19.6226616205 56.0965068941
40 3 2 53.907140009 19.8184899294 55.6454106138
41 3 2 53.1104788538 20.2979916628 55.1883995606
42 3 2 52.5060008608 21.0153254199 54.7485261152
43 3 2 52.1531049528 21.902972047 54.3472806109
44 3 2 52.0882590179 22.8778888272 54.0026325476
45 3 2 52.3216759591 23.8490786026 53.7273927195
46 3 2 52.8363828155 24.7258839216 53.528045546
47 3 2 53.5897678022 25.4262502239 53.4041580335
48 3 2 54.5174642605 25.8842048936 53.3484192423
49 3 2 55.5392175073 26.0558704873 53.3473066587
50 3 2 56.5661998342 25.923464046 53.3823187363
51 3 2 57.5091069165 25.4969179636 53.4316612623
52 3 2 58.2862976632 24.8129746762 53.4722338419
53 3 2 58.8312355842 23.9318376874 53.4817354374
54 3 2 59.0985534139 22.9316841793 53.4406970483
55 4 1 55.4674149484 59.1444994622 14.6156644059
56 4 1 57.2228271707 55.4330445152 18.3118274391
57 4 2 55.3191434182 58.9333490699 14.1249377475
58 4 2 55.2515310085 58.4324595747 13.2205106986
59 4 2 55.4535122124 57.8202339084 12.4094414427
60 4 2 55.8981013234 57.1360975393 11.7708899865
61 4 2 56.5361995724 56.426030404 11.3682918008
62 4 2 57.3010703499 55.7383759592 11.2435758461
63 4 2 58.1144220691 55.1194348045 11.4133428603
64 4 2 58.8935442349 54.609244507 11.867352246
65 4 2 59.5588462847 54.2379302839 12.569455473
66 4 2 60.0411120551 54.0229591692 13.4608909209
67 4 2 60.2878086503 53.9675479405 14.4656398432
68 4 2 60.2678746754 54.0603699183 15.497355273
69 4 2 59.9745513992 54.2765873624 16.4672323187
70 4 2 59.4259987946 54.5801153659 17.2921024916
71 4 2 58.6636403056 54.9269108976 17.9020142923
72 4 2 57.7483872112 55.2689872067 18.2466091024
73 5 1 50.7275929707 26.8309891594 21.1231821595
74 5 1 51.2814958929 30.6838000312 17.2031016755
75 5 2 51.2021829633 26.5988079897 21.2912233193
76 5 2 52.1249356618 26.1351136699 21.374680172
77 5 2 53.030171081 25.6827028567 21.1525916691
78 5 2 53.8473370057 25.2978496292 20.6450703829
79 5 2 54.5139085199 25.030670373 19.8982453212
80 5 2 54.9810869856 24.920555806 18.9800573914
81 5 2 55.2182479083 24.9925806194 17.9740667681
82 5 2 55.2157322775 25.2552179866 16.9718366068
83 5 2 54.9857269603 25.6995672561 16.0645873071
84 5 2 54.5611539005 26.3001652225 15.3348820167
85 5 2 53.9926693716 27.017307029 14.8491012215
86 5 2 53.344046793 27.8006651594 14.6513923417
87 5 2 52.6863639529 28.5938766566 14.7596458121
88 5 2 52.0915244584 29.3396804552 15.1638644174
89 5 2 51.6257039133 29.9851365751 15.827074511
90 5 2 51.3433181894 30.4864514589 16.6886960644
91 6 1 59.3956868818 46.0797496476 67.4664408253
92 6 1 59.1982199226 41.7111964245 64.0908311621
93 6 2 59.5555927245 46.5532981533 67.2265168325
94 6 2 60.0323436435 47.306559061 66.6985428015
95 6 2 60.6941524413 47.8276924748 66.0953188867
96 6 2 61.4721537511 48.0679516945 65.4546633783
97 6 2 62.2868915692 48.0041909519 64.8178063562
98 6 2 63.0555614573 47.640975086 64.2256316784
99 6 2 63.6995579459 47.0101634697 63.7149505267
100 6 2 64.1516392124 46.1680061135 63.3151461659
101 6 2 64.362055994 45.190016627 63.0454957374
102 6 2 64.3030860998 44.1640893557 62.9134131997
103 6 2 63.971561214 43.1824880459 62.9137735659
104 6 2 63.3891556804 42.3334362509 63.029380032
105 6 2 62.6004109428 41.6930759902 63.2325314204
106 6 2 61.6686757122 41.3185276077 63.4875470677
107 6 2 60.6703319008 41.2426834048 63.7540190217
108 6 2 59.6878326149 41.4712095956 63.9904951189
109 7 1 14.4624455386 35.3203326226 24.8345693948
110 7 1 14.848592292 29.8151160541 24.5866333555
111 7 2 14.7590774556 35.5926980478 24.4535074982
112 7 2 15.4879952243 35.9635720799 23.8174404026
113 7 2 16.3827945171 36.1162271072 23.3179599933
114 7 2 17.3597670209 36.025471937 22.9851864409
115 7 2 18.3277145536 35.6883015654 22.8340450315
116 7 2 19.1962615353 35.1241710754 22.8629057668
117 7 2 19.8840924806 34.3732223583 23.0537319343
118 7 2 20.3263636878 33.4926252875 23.3737241049
119 7 2 20.4806135692 32.5513668372 23.778309714
120 7 2 20.3306329107 31.6239631043 24.2152057307
121 7 2 19.8879422992 30.7836673652 24.6291841172
122 7 2 19.1907420512 30.0957932355 24.9671057162
123 7 2 18.3004303565 29.6117615084 25.1827637434
124 7 2 17.2960069971 29.3644132872 25.2410954123
125 7 2 16.266872728 29.3650166059 25.1213778134
126 7 2 15.304680638 29.6022393785 24.8191167521
127 8 1 60.3647333865 40.2795439831 14.5269742422
128 8 1 55.7504105593 38.2934288415 16.8250957691
129 8 2 60.30568923 40.7656936136 14.2670628875
130 8 2 60.0145946687 41.5658762577 13.6767903203
131 8 2 59.5023272152 42.1692274648 13.0082101918
132 8 2 58.8033140202 42.5299163717 12.3338704577
133 8 2 57.9690036096 42.6242301352 11.7268440465
134 8 2 57.0631764888 42.4527352946 11.254068457
135 8 2 56.1561317202 42.040226133 10.9702445845
136 8 2 55.3182793517 41.4334647447 10.9128508804
137 8 2 54.6137227286 40.6969187951 11.0987272914
138 8 2 54.0944156454 39.9068854656 11.5225403433
139 8 2 53.7954268964 39.1445371694 12.1572692732
140 8 2 53.7317438482 38.4885229029 12.9566688995
141 8 2 53.8969063818 38.0077995997 13.859484747
142 8 2 54.2635957153 37.7553468908 14.795036228
143 8 2 54.7861244375 37.7633381525 15.6896589896
144 8 2 55.4046007932 38.0402079895 16.473419222
145 9 1 18.6232936866 68.3378153926 70.7733895616
146 9 1 13.5770860559 66.1304090432 70.3477878493
147 9 2 18.6582848677 68.8709525518 70.6253288485
148 9 2 18.6121266822 69.793099966 70.1552612154
149 9 2 18.411197006 70.5510795022 69.4781022245
150 9 2 18.0572681909 71.0828297872 68.6623657232
151 9 2 17.5660580516 71.3469096391 67.7891965289
152 9 2 16.9657972282 71.3262753207 66.9449742951
153 9 2 16.2946560395 71.0298340305 66.2134402375
154 9 2 15.59726536 70.4916320351 65.6680643456
155 9 2 14.9206486351 69.7677514434 65.3653487896
156 9 2 14.3099358199 68.931198472 65.3396778989
157 9 2 13.8042499042 68.0652491238 65.6001841219
158 9 2 13.4331409566 67.2558588029 66.129915628
159 9 2 13.2138927147 66.5838277091 66.8873814216
160 9 2 13.1499472188 66.1174361159 67.8103331357
161 9 2 13.2305910789 65.9062208059 68.8214388037
162 9 2 13.4319319717 65.9764599256 69.8353314618
163 10 1 5.10365467765 28.7385390312 44.4152232101
164 10 1 4.70639732068 28.1179322679 38.9402780141
165 10 2 5.59745105557 28.6066278289 44.6300397828
166 10 2 6.49085362897 28.1618475405 44.9083424023
167 10 2 7.28460003166 27.5014046233 44.9933824668
168 10 2 7.91834236302 26.6920483782 44.8639099329
169 10 2 8.34631666589 25.8141011576 44.5182270072
170 10 2 8.54151418897 24.9541371982 43.9743428957
171 10 2 8.49814316223 24.1970916106 43.2683323126
172 10 2 8.23215670136 23.6185187707 42.4510473667
173 10 2 7.77979872384 23.2777057404 41.5834825278
174 10 2 7.1943004128 23.2122684107 40.7312151432
175 10 2 6.54102833688 23.4347229133 39.9584282384
176 10 2 5.89152646227 23.9313448089 39.3220604054
177 10 2 5.31699511138 24.6634200331 38.8666160026
178 10 2 4.88180124377 25.5707735801 38.6201087011
179 10 2 4.6376115798 26.577254293 38.5915081139
180 10 2 4.61868331718 27.5976758392 38.7699222392
181 11 1 30.1294516694 48.8001706038 11.3323262889
182 11 1 34.7930766184 50.7501279696 13.5608369279
183 11 2 30.0970166227 48.2473825482 11.3048504547
184 11 2 30.2490231237 47.2335771061 11.1547086537
185 11 2 30.6712385067 46.3216468707 10.9025828375
186 11 2 31.3333974652 45.589496073 10.5880184812
187 11 2 32.1833644772 45.098642529 10.2562521659
188 11 2 33.1518858186 44.8886104548 9.95408838517
189 11 2 34.1589018548 44.9733279401 9.72563344092
190 11 2 35.1208442631 45.3398574403 9.60827527145
191 11 2 35.9582530611 45.9495749984 9.62927564099
192 11 2 36.6030191723 46.7416907164 9.80328530278
193 11 2 37.0045923862 47.6387895911 10.131008622
194 11 2 37.1345888749 48.5538876855 10.5991393748
195 11 2 36.9893783033 49.3983604816 11.1815735751
196 11 2 36.5904147238 50.0900207688 11.8417887829
197 11 2 35.9822810979 50.5606097879 12.5361730276
198 11 2 35.2286256772 50.7620188354 13.2179999218
199 12 1 9.94879360083 71.3246217549 45.3010916797
200 12 1 11.1562247295 68.176357815 49.67699562
201 12 2 9.62738531144 71.0817724588 44.9201684342
202 12 2 9.18461309894 70.4543116455 44.2246860788
203 12 2 8.97167452067 69.6437597987 43.6154957335
204 12 2 8.9958404659 68.7139354537 43.1591047765
205 12 2 9.2427703803 67.7395285149 42.9080933301
206 12 2 9.67781936917 66.7992924713 42.896321723
207 12 2 10.2491959869 65.9688662259 43.1358442121
208 12 2 10.892682889 65.3138798121 43.6158102691
209 12 2 11.5374900713 64.8839723918 44.303453577
210 12 2 12.1127071893 64.708267778 45.1470785926
211 12 2 12.5537668474 64.7927198773 46.0807724568
212 12 2 12.8083297434 65.1195700073 47.0304127759
213 12 2 12.8410552568 65.6489655531 47.9204236793
214 12 2 12.6368226515 66.3225924262 48.6806643582
215 12 2 12.2021092906 67.0689902385 49.252822213
216 12 2 11.564400242 67.810065725 49.595727891
217 13 1 14.6449987658 59.6215851945 3.96128093354
218 13 1 11.0680173763 60.2089711083 -0.207432655637
219 13 2 14.5049218754 59.2387892048 4.33708311969
220 13 2 14.0368755896 58.6365117242 5.03825679419
221 13 2 13.3327783149 58.2174692042 5.67237066831
222 13 2 12.4492681981 58.0060894807 6.17054583556
223 13 2 11.4593363872 58.0078724808 6.47629383926
224 13 2 10.4456740829 58.208888919 6.55066544439
225 13 2 9.49313545714 58.5770499144 6.37580075623
226 13 2 8.68100342192 59.0650318064 5.95655710203
227 13 2 8.07576320369 59.6145895801 5.32006629866
228 13 2 7.72504239283 60.1618657435 4.51326165996
229 13 2 7.65326981598 60.6432107671 3.59860015067
230 13 2 7.85944891382 61.0009845689 2.64836960098
231 13 2 8.31724857478 61.1888102532 1.73809986408
232 13 2 8.97740314548 61.1758012411 0.939678471853
233 13 2 9.77220286338 60.9493764996 0.314798278524
234 13 2 10.6216654206 60.5164072687 -0.0906656781309
235 14 1 11.188977971 43.9121920411 71.415677113
236 14 1 12.2105666982 39.8076362821 74.969121858
237 14 2 11.2241768662 44.4218349678 71.6310992872
238 14 2 11.1483668079 45.2850681432 72.1990177065
239 14 2 10.9078204847 45.9619521032 72.9456204003
240 14 2 10.5394352779 46.388967097 73.8147582177
241 14 2 10.0917607412 46.5253682622 74.7391132591
242 14 2 9.62057343906 46.3568994103 75.6463347223
243 14 2 9.18379306137 45.89709244 76.4656334852
244 14 2 8.83620319899 45.1860339406 77.1342343446
245 14 2 8.62445796566 44.286711407 77.6030978086
246 14 2 8.58282960024 43.2792720974 77.8413899149
247 14 2 8.73008464379 42.2537178254 77.8392926642
248 14 2 9.06777341948 41.3017015348 77.6088989048
249 14 2 9.58008872476 40.5081733791 77.1831101013
250 14 2 10.2353066157 39.9436377417 76.6126374545
251 14 2 10.9886779595 39.6577269503 75.9613797107
252 14 2 11.7865071986 39.6746774223 75.300598962
253 15 1 6.61435986514 35.7022655668 40.7009277793
254 15 1 2.99586278106 33.6694408983 44.3467601645
255 15 2 6.73750321695 36.238626034 40.7682683479
256 15 2 6.73381794378 37.2665173749 40.8981753196
257 15 2 6.42787739087 38.2463130581 41.0390682166
258 15 2 5.84802100668 39.0902291396 41.1972523886
259 15 2 5.04755493556 39.7228667379 41.3774571315
260 15 2 4.09989330522 40.0880844406 41.5824046253
261 15 2 3.09186672513 40.1541154439 41.8125618143
262 15 2 2.11580790863 39.916463012 42.0660978463
263 15 2 1.26113579283 39.3983103428 42.3390509504
264 15 2 0.606205241508 38.6484074807 42.625689541
265 15 2 0.211165208711 37.7366278812 42.9190346375
266 15 2 0.112476322343 36.7475996315 43.2114959787
267 15 2 0.31958759539 35.7729918268 43.4955638559
268 15 2 0.81407517364 34.9031591774 43.7644936016
269 15 2 1.55132162075 34.2189064181 44.012920349
270 15 2 2.46458267832 33.7841231729 44.2373480245
271 16 1 64.1144383227 45.3366424709 67.7552670877
272 16 1 62.5683776328 40.1665072614 66.5731548595
273 16 2 64.3865617099 45.3952276475 68.2347441229
274 16 2 64.713799881 45.3825920929 69.2177016669
275 16 2 64.78898718 45.1993519765 70.234667714
276 16 2 64.6160682774 44.8463205403 71.1932697531
277 16 2 64.2216020607 44.3397870516 72.0064549964
278 16 2 63.6523408633 43.7100320793 72.6004250084
279 16 2 62.9709691136 42.9985675012 72.921362236
280 16 2 62.2503898173 42.2543528074 72.9403353346
281 16 2 61.5670796432 41.5293325735 72.6559361829
282 16 2 60.9941182791 40.8737018512 72.0944082295
283 16 2 60.594527414 40.3313310238 71.3072544724
284 16 2 60.4155264789 39.935767138 70.3665430987
285 16 2 60.4842287226 39.70717618 69.3583386617
286 16 2 60.805169911 39.6505049999 68.3748575271
287 16 2 61.3598949045 39.7550304198 67.5060625976
288 16 2 62.1086397944 39.9953366221 66.8314634351
289 17 1 31.3613204743 62.3592928009 78.0390349694
290 17 1 36.3126273649 61.4929171815 75.7473228535
291 17 2 30.9314864186 62.3088623592 77.6925078519
292 17 2 30.2545203243 62.360021396 76.9098523266
293 17 2 29.8001532876 62.5829527885 76.0058046501
294 17 2 29.6153005165 62.9425037171 75.0518640891
295 17 2 29.7223117141 63.391068857 74.1240775134
296 17 2 30.1169339628 63.8729294755 73.2961079268
297 17 2 30.7686993666 64.3293320463 72.6325202815
298 17 2 31.6237021179 64.703843476 72.182896555
299 17 2 32.6095118683 64.9474948299 71.9773164855
300 17 2 33.6417755609 65.0232447194 72.0236158842
301 17 2 34.6319059863 64.9093555257 72.3066724219
302 17 2 35.4951562696 64.6013747253 72.789783989
303 17 2 36.1583443218 64.1125407264 73.4180139946
304 17 2 36.5665231917 63.4725762223 74.1231986902
305 17 2 36.6879893332 62.7249790483 74.8301601128
306 17 2 36.5171722994 61.9230574698 75.4635583556
307 18 1 69.8196612023 63.9021178582 10.8515186505
308 18 1 68.720252421 58.4995333057 10.5031344566
309 18 2 70.3005220454 64.0272538259 11.0974768325
310 18 2 71.1200213971 64.1166478165 11.7250750623
311 18 2 71.7809184269 63.9999350746 12.5144059581
312 18 2 72.2344454306 63.6737961716 13.3869864324
313 18 2 72.4507359277 63.1540003138 14.256745421
314 18 2 72.4215469113 62.4739680212 15.0378690306
315 18 2 72.1610101761 61.6817249367 15.652622246
316 18 2 71.7043442427 60.8355244168 16.0384342684
317 18 2 71.1046442843 59.9985378941 16.1536016771
318 18 2 70.428042643 59.2330969702 15.9810895846
319 18 2 69.7476810437 58.5950120562 15.5300843209
320 18 2 69.1370439216 58.1284854035 14.8351561242
321 18 2 68.6632605119 57.8620821866 13.9531081561
322 18 2 68.3809862 57.8061268635 12.9577990455
323 18 2 68.3274208286 57.9517621294 11.9334108712
324 18 2 68.518918032 58.2717562358 10.9667761915
325 19 1 27.9107977658 25.5148438212 61.2303101556
326 19 1 29.5835551065 20.2917489803 60.5676230316
327 19 2 27.4231078971 25.5730818157 61.4875036935
328 19 2 26.4395197226 25.524061864 61.8093753429
329 19 2 25.4420885972 25.2627768257 61.9109198656
330 19 2 24.522647774 24.7991926545 61.7961666525
331 19 2 23.7659218985 24.1617143288 61.488860055
332 19 2 23.2418045837 23.3945968149 61.0302951508
333 19 2 22.9989877939 22.5539113443 60.4755538081
334 19 2 23.0605237025 21.7024346713 59.8884841202
335 19 2 23.4217235479 20.9039271393 59.3358808229
336 19 2 24.0505850015 20.2173210962 58.8813971324
337 19 2 24.8907090946 19.6913493683 58.579742925
338 19 2 25.8664408335 19.3601033932 58.4716980784
339 19 2 26.88976495 19.2399258769 58.5803954941
340 19 2 27.8683282581 19.3279211991 58.909212596
341 19 2 28.7138573996 19.6022193422 59.4414634868
342 19 2 29.3502047252 20.0239692839 60.1419198232
343 20 1 40.8141601944 13.0370970777 39.0089399539
344 20 1 39.0259347699 18.1767372794 38.0579722949
345 20 2 40.6909710065 12.8360060157 39.5107052345
346 20 2 40.5528592186 12.6634350203 40.5229277381
347 20 2 40.5302658874 12.7739445068 41.5528438541
348 20 2 40.607589613 13.1644943489 42.5093697939
349 20 2 40.7601218224 13.8065194906 43.3081110873
350 20 2 40.9562988905 14.6485335743 43.8790549128
351 20 2 41.16057908 15.620821785 44.1729515795
352 20 2 41.3366820758 16.6417951691 44.1658035043
353 20 2 41.4508958386 17.6254272496 43.8610525279
354 20 2 41.4751493672 18.4890951097 43.2892661997
355 20 2 41.3895712955 19.1611102503 42.5053516281
356 20 2 41.1843011141 19.5872528057 41.5835508436
357 20 2 40.8603879294 19.7357135391 40.6106738367
358 20 2 40.4296948407 19.5999931697 39.6781860588
359 20 2 39.9138176499 19.1994947644 38.8738715913
360 20 2 39.3421164623 18.5777552007 38.2738318608
361 21 1 24.2608820264 64.1140195792 70.5383427217
362 21 1 21.2928856841 64.0646815569 65.8793133665
363 21 2 24.8092952552 64.1504583083 70.4655640326
364 21 2 25.7991594397 64.0402831219 70.180116427
365 21 2 26.6652271646 63.7182232484 69.7114436786
366 21 2 27.3297236778 63.2257837372 69.0874262726
367 21 2 27.7332469045 62.619999286 68.3501039446
368 21 2 27.8401817878 61.968235681 67.5518438711
369 21 2 27.641946505 61.3420495852 66.7505675409
370 21 2 27.1577746789 60.8106663402 66.0044713669
371 21 2 26.4329622837 60.4346702609 65.366722238
372 21 2 25.5347390384 60.2604825376 64.8806114998
373 21 2 24.5461405975 60.3161300683 64.5756090635
374 21 2 23.558440073 60.6086908816 64.464677303
375 21 2 22.6628287342 61.1236489941 64.5430895685
376 21 2 21.9421041672 61.8262175025 64.7888610086
377 21 2 21.4631234966 62.6645093177 65.1647524303
378 21 2 21.2707095365 63.5742665338 65.6216645519
379 22 1 19.4966738067 31.3532270153 6.69698040304
380 22 1 24.8143197644 32.2954816838 7.86007484002
381 22 2 19.1362814989 31.656010625 6.98993271691
382 22 2 18.588409295 32.1449683318 7.72082697769
383 22 2 18.2548693871 32.5093649736 8.63154989298
384 22 2 18.1750860247 32.7329212644 9.64006722604
385 22 2 18.3653542263 32.8121951397 10.6554310403
386 22 2 18.8173545321 32.7568954913 11.5860693608
387 22 2 19.4989113008 32.5889972283 12.3481327148
388 22 2 20.3569254328 32.3407383224 12.8731367872
389 22 2 21.3222142117 32.0516814032 13.114204583
390 22 2 22.3158171234 31.7651077301 13.0503391395
391 22 2 23.2561928966 31.5240722213 12.6883373442
392 22 2 24.0666517713 31.3674791131 12.062170416
393 22 2 24.6823455656 31.3265359424 11.2298875196
394 22 2 25.056178414 31.4219090638 10.2683247394
395 22 2 25.16309943 31.6618399659 9.2661016755
396 22 2 25.0023860268 32.0413940822 8.31554400441
397 23 1 59.2254444594 36.6997774407 17.6020383914
398 23 1 62.735797083 36.4794106202 13.342125953
399 23 2 59.457288996 36.826495897 18.0894521087
400 23 2 60.0407917007 36.8915651946 18.9431151518
401 23 2 60.7831395412 36.7399474943 19.6497846417
402 23 2 61.6297361959 36.3985587274 20.1398640487
403 23 2 62.5164833427 35.9116119508 20.3634984505
404 23 2 63.375623049 35.3365874449 20.295118675
405 23 2 64.1419137271 34.7389935397 19.9357718615
406 23 2 64.7585767298 34.1863957057 19.3130260175
407 23 2 65.1824715725 33.7422581418 18.4784572679
408 23 2 65.3880280734 33.460159183 17.5029488295
409 23 2 65.3695770069 33.3789077787 16.4702301947
410 23 2 65.1418668384 33.5190061604 15.4692454127
411 23 2 64.7387194411 33.8807811184 14.5860460767
412 23 2 64.2099473228 34.4443542153 13.8959479514
413 23 2 63.616813349 35.171453653 13.4566661422
414 23 2 63.0264467959 36.0089026443 13.3030545176
415 24 1 23.5703953554 13.9193906516 29.124186579
416 24 1 26.6726431634 13.4999631958 24.5724692977
417 24 2 23.3207197671 14.4096957555 29.1923378359
418 24 2 23.0700611197 15.4110470818 29.2813084762
419 24 2 23.1151479192 16.4460023323 29.2981851234
420 24 2 23.446969746 17.4246490148 29.2233856761
421 24 2 24.0303810488 18.2622070127 29.0456840635
422 24 2 24.8073045681 18.8867560659 28.7632334725
423 24 2 25.7020249232 19.2457911103 28.383734679
424 24 2 26.6280898665 19.311007974 27.9237341435
425 24 2 27.4961901751 19.080883227 27.4071158451
426 24 2 28.2222999475 18.5808130378 26.8629243205
427 24 2 28.7353353401 17.8607983803 26.3227173323
428 24 2 28.9836336695 16.9908875789 25.8176894634
429 24 2 28.9396623282 16.0547915909 25.3758288138
430 24 2 28.6025283079 15.1422539765 25.0193659606
431 24 2 27.9980595948 14.340871013 24.7627476996
432 24 2 27.176451018 13.7281075284 24.6113202592
433 25 1 10.9407988656 26.3568629074 28.6518295549
434 25 1 6.94366972341 30.0465049926 29.6148928786
435 25 2 10.805027976 25.9524781457 28.2976815377
436 25 2 10.3625302022 25.1753017471 27.7745729669
437 25 2 9.70201619813 24.4406907675 27.462294293
438 25 2 8.87307983816 23.8251099701 27.3764176127
439 25 2 7.94066624436 23.3941748353 27.5118790863
440 25 2 6.97915221207 23.1966708846 27.8434404929
441 25 2 6.06556696379 23.2601070112 28.3279896268
442 25 2 5.27257114149 23.5882081176 28.9084698599
443 25 2 4.66183398326 24.1605756007 29.5190807007
444 25 2 4.27841233709 24.9345466303 30.0912753335
445 25 2 4.1466438496 25.8490827514 30.5600084773
446 25 2 4.26792865463 26.8303333769 30.869665089
447 25 2 4.62060175473 27.7983670708 30.9791295266
448 25 2 5.16190772782 28.6744570851 30.8655331295
449 25 2 5.83189776962 29.3882570926 30.526338636
450 25 2 6.55889386692 29.8842130662 29.9795714479
451 26 1 72.432150824 70.6472731861 53.5274447532
452 26 1 68.5306425946 66.9129032843 52.3652459607
453 26 2 72.2693873358 71.1756662189 53.486329819
454 26 2 71.8864196877 72.0944103732 53.1987624865
455 26 2 71.416996964 72.8496667345 52.6670857554
456 26 2 70.8860079104 73.3717125223 51.9466908418
457 26 2 70.3239528789 73.6120814766 51.1101701197
458 26 2 69.7641638023 73.5479814277 50.24070052
459 26 2 69.239766078 73.1843717419 49.424462176
460 26 2 68.7806592758 72.5535112884 48.7427833341
461 26 2 68.4107918727 71.7120181294 48.2647275018
462 26 2 68.1459784129 70.7357089356 48.0407984935
463 26 2 67.9924580546 69.7126884986 48.0983371429
464 26 2 67.9463258871 68.735319215 48.4390292589
465 26 2 67.9938888531 67.891802501 49.0387519687
466 26 2 68.1129138345 67.2581394687 49.8497724533
467 26 2 68.2746541413 66.8912036279 50.8050986662
468 26 2 68.446469696 66.823557018 51.8245854795
469 27 1 74.5080792563 46.4579689299 13.2331550608
470 27 1 71.1242469454 48.2055508127 17.2348581378
471 27 2 74.6762202085 46.8517175566 12.8809161827
472 27 2 74.7606505129 47.6360934008 12.2092942132
473 27 2 74.5426400689 48.4330605375 11.5841823508
474 27 2 74.0444947555 49.1849620968 11.074334037
475 27 2 73.3140539962 49.8382488156 10.7379967489
476 27 2 72.4203303236 50.3483599101 10.6176028973
477 27 2 71.4472190714 50.6837846717 10.735902226
478 27 2 70.4858515388 50.8289345845 11.0938882333
479 27 2 69.6262886168 50.7855641762 11.6707076174
480 27 2 68.9493119777 50.572611098 12.4255609991
481 27 2 68.5190610426 50.2244700083 13.3014216762
482 27 2 68.3771868438 49.7878575913 14.2302334549
483 27 2 68.5390556451 49.3175544563 15.13911379
484 27 2 68.9923483473 48.8714120315 15.9569968342
485 27 2 69.6981833421 48.5050795609 16.6211109
486 27 2 70.5946604656 48.2669318244 17.0826999312
487 28 1 10.8241780826 17.5448074123 24.4179861568
488 28 1 12.2017925406 15.4411398525 29.3368023015
489 28 2 11.107110231 17.3384652066 23.9881560955
490 28 2 11.8229156745 17.003024235 23.3184158976
491 28 2 12.7249500795 16.7438809038 22.8795210613
492 28 2 13.7325376405 16.5661356944 22.7163525639
493 28 2 14.7553816643 16.4674698668 22.848659664
494 28 2 15.7017948716 16.438356807 23.269259809
495 28 2 16.4870564479 16.4629303518 23.944693306
496 28 2 17.0411341191 16.5204309476 24.8182730831
497 28 2 17.3150674061 16.5870978281 25.8152515646
498 28 2 17.2854302418 16.6383347447 26.8496337125
499 28 2 16.9564661943 16.6509518487 27.832015245
500 28 2 16.359701677 16.6052793841 28.677731597
501 28 2 15.5510724004 16.4869605334 29.3145748695
502 28 2 14.6058249816 16.2882600028 29.6893753865
503 28 2 13.6116584161 16.0087690741 29.7728479687
504 28 2 12.660730549 15.6554428575 29.5622611993
505 29 1 24.9111654121 21.6387004499 12.5253859581
506 29 1 24.6166235395 26.417110407 15.2818391916
507 29 2 25.3907957242 21.5503181048 12.2617101859
508 29 2 26.2492721995 21.6011791983 11.6838855571
509 29 2 27.000534297 21.9339168868 11.0527430196
510 29 2 27.5888070157 22.5253969668 10.4383030025
511 29 2 27.9731714006 23.3289015574 9.90906354467
512 29 2 28.1312941965 24.2783873102 9.52575688187
513 29 2 28.0614634643 25.2945050842 9.33581386548
514 29 2 27.7827446198 26.2918324075 9.3690407674
515 29 2 27.3332426716 27.1866595078 9.63490251793
516 29 2 26.7666290522 27.904619234 10.1216600027
517 29 2 26.1472496095 28.3874654235 10.7974400516
518 29 2 25.5442596556 28.5983818842 11.613140593
519 29 2 25.0253206441 28.5253380919 12.5069061763
520 29 2 24.65043301 28.1821857406 13.4097659311
521 29 2 24.4664672903 27.6073961973 14.2519200774
522 29 2 24.5028919998 26.8605539402 14.9691019893
523 30 1 14.7611484555 38.4778361235 35.0609410918
524 30 1 10.0917570883 36.9251972708 37.5717353714
525 30 2 14.8868801963 38.1910013611 34.6034490848
526 30 2 15.0852902638 37.4687906954 33.8875613767
527 30 2 15.2058011461 36.5611675791 33.4026413655
528 30 2 15.220096833 35.5483118102 33.1849975375
529 30 2 15.1095425456 34.5199948616 33.246576869
530 30 2 14.8668832462 33.5673974517 33.5738758917
531 30 2 14.4969049162 32.7747986651 34.1291714976
532 30 2 14.0159983262 32.2118941395 34.8539592995
533 30 2 13.4506650611 31.9274434948 35.6742861498
534 30 2 12.8351019718 31.9448260237 36.5074907717
535 30 2 12.2080842232 32.2599097321 37.269738114
536 30 2 11.6094310419 32.8414279588 37.883660692
537 30 2 11.0763763001 33.6338292486 38.2854104267
538 30 2 10.6401747474 34.5623407186 38.4304782267
539 30 2 10.3232532241 35.5397834069 38.297750873
540 30 2 10.1371665148 36.4745184017 37.8914354323
541 31 1 60.8426699403 46.6149937259 38.6966278582
542 31 1 55.6921584704 46.0639123736 40.6166622337
543 31 2 61.0802002746 47.1046861319 38.8022795302
544 31 2 61.3243745549 48.1058024291 38.9099600368
545 31 2 61.2847790856 49.1411173021 38.9076527094
546 31 2 60.9585995996 50.1199702277 38.8132922079
547 31 2 60.3691431968 50.9568470382 38.6532035934
548 31 2 59.5637139646 51.5791743095 38.4597028686
549 31 2 58.6093013364 51.9339342344 38.2681514606
550 31 2 57.5864741839 51.9924970543 38.1137331217
551 31 2 56.5820371799 51.7532305849 38.0282470241
552 31 2 55.6811187844 51.2416489859 38.0372093506
553 31 2 54.9594120127 50.5080872128 38.1575275623
554 31 2 54.4762752199 49.623113121 38.3959593293
555 31 2 54.2693217449 48.671095394 38.7484965866
556 31 2 54.3509915554 47.7425135633 39.2007308587
557 31 2 54.7074173781 46.9257110413 39.729166554
558 31 2 55.2996886636 46.2988428549 40.3033625245
559 32 1 57.2777143053 3.51487732384 26.2561434706
560 32 1 56.414726741 5.8308055051 21.3155240576
561 32 2 56.8177891257 3.37000901308 26.5297555862
562 32 2 55.8920236515 3.31964440398 26.9922182377
563 32 2 54.9452931754 3.55337716512 27.3422473982
564 32 2 54.052745925 4.04343961845 27.5336846171
565 32 2 53.2845914716 4.73870031961 27.5348266755
566 32 2 52.6997013155 5.56932455239 27.3313152497
567 32 2 52.3402429062 6.45313957646 26.9274456341
568 32 2 52.2278361921 7.30312445304 26.3457752366
569 32 2 52.3615830195 8.03534177087 25.6250675311
570 32 2 52.7181489978 8.5765883169 24.8167588705
571 32 2 53.2538903661 8.87106735353 23.9802702008
572 32 2 53.9088320054 8.88547434206 23.1775910004
573 32 2 54.612134011 8.61203256243 22.4676291047
574 32 2 55.2885485598 8.06920194043 21.9008414151
575 32 2 55.8652785486 7.29999647484 21.5146348862
576 32 2 56.2786128554 6.36806362636 21.329956983
577 33 1 38.8351581952 42.6998622141 43.9234914088
578 33 1 44.2170065732 41.5087187316 44.290746499
579 33 2 38.7145837152 43.2409498554 43.9317101228
580 33 2 38.6266015329 44.2524499628 44.1380512952
581 33 2 38.7357931043 45.1894161833 44.5665621045
582 33 2 39.0466324622 45.973813021 45.1678528043
583 33 2 39.5452139828 46.5415112716 45.8767852234
584 33 2 40.2005198457 46.8481332279 46.6184099352
585 33 2 40.9672472257 46.8730975889 47.3147976982
586 33 2 41.7899375243 46.6214953908 47.892142498
587 33 2 42.6080312723 46.1236259725 48.2874887677
588 33 2 43.3613879638 45.4322352716 48.4544696204
589 33 2 43.9957677028 44.6177081735 48.3675330664
590 33 2 44.4677750243 43.7616531171 48.0242710091
591 33 2 44.7488142753 42.9494637037 47.4456387361
592 33 2 44.8276960319 42.2625352984 46.6740449014
593 33 2 44.7116569857 41.7708460604 45.7694860896
594 33 2 44.4257003382 41.5265786203 44.8040782873