LAMMPS input file for bananas

4320 atoms

2 atom types

0 63.4960420787 xlo xhi
0 63.4960420787 ylo yhi
0 63.4960420787 zlo zhi

Masses

 1 1
 2 1

Atoms

1 1 1 24.7067977815 24.9397010362 37.767189141
2 1 1 21.3298015025 24.3173368038 42.0946075349
3 1 2 24.7427882499 25.4571896284 37.5715061548
4 1 2 24.5750983968 26.4127011495 37.2077371932
5 1 2 24.1161057614 27.2852695298 36.8893032227
6 1 2 23.4072253377 28.0056924447 36.6614230353
7 1 2 22.5126487238 28.5186352221 36.5610616874
8 1 2 21.5134932291 28.78767445 36.6135612346
9 1 2 20.5004082485 28.798617873 36.8303308698
10 1 2 19.5653128123 28.5607979784 37.207807007
11 1 2 18.7930174124 28.106221365 37.7277780917
12 1 2 18.2534937522 27.4866514274 38.359044536
13 1 2 17.9954970135 26.7688902604 39.0602624774
14 1 2 18.0421219516 26.0286898272 39.7837121612
15 1 2 18.38869787 25.34384737 40.4796474691
16 1 2 19.0032143421 24.7871143994 41.1008301444
17 1 2 19.829238876 24.4195655889 41.6068354333
18 1 2 20.7910605853 24.2850319811 41.9677366927
19 2 1 36.2680950482 7.08833457129 52.3473574684
20 2 1 32.3288903508 3.21585477832 52.4148679587
21 2 2 36.4640511712 7.23092048344 52.8460076901
22 2 2 36.6023145538 7.52128013302 53.8309059194
23 2 2 36.4344062458 7.8050184931 54.8131224711
24 2 2 35.9759175353 8.03933594616 55.7121961303
25 2 2 35.2689253372 8.1859374583 56.4552439347
26 2 2 34.3781569953 8.21452306917 56.9836042617
27 2 2 33.3850905577 8.10554965239 57.2581836782
28 2 2 32.3805282703 7.8520122193 57.2630202031
29 2 2 31.4563201952 7.46008240494 57.0067381987
30 2 2 30.6969923228 6.94854593999 56.5217622834
31 2 2 30.1720422537 6.34709038169 55.8613619143
32 2 2 29.929604678 5.69359917227 55.0947960188
33 2 2 29.9920640273 5.03069866449 54.3010002278
34 2 2 30.3540141933 4.40187284353 53.561392105
35 2 2 30.9827512804 3.84749987791 52.9524501526
36 2 2 31.821254478 3.4011717574 52.5387430005
37 3 1 29.9690247918 7.36316778086 17.2447774249
38 3 1 27.1998428409 11.8994083832 15.7374143026
39 3 2 30.0564235934 6.99684984949 16.8378938904
40 3 2 29.9886632275 6.33757354896 16.0415187881
41 3 2 29.6299255183 5.77370472153 15.2498059534
42 3 2 29.0164540586 5.36818228844 14.5199742362
43 3 2 28.2077107415 5.16951232029 13.9036021878
44 3 2 27.2809559682 5.20734683841 13.4419268141
45 3 2 26.3242065687 5.48978111229 13.1620849325
46 3 2 25.428213303 6.00261579746 13.0746397236
47 3 2 24.6781891717 6.71065116776 13.1726179256
48 3 2 24.1460424791 7.5608954763 13.4321454282
49 3 2 23.8838225834 8.48739501158 13.8146233342
50 3 2 23.9189757366 9.41724560197 14.2702461459
51 3 2 24.251843432 10.2772376361 14.7425414028
52 3 2 24.8556312783 11.0005289235 15.1735169956
53 3 2 25.6788512364 11.532737181 15.5089469919
54 3 2 26.6500146167 11.8368968331 15.7033141853
55 4 1 19.9967673139 24.9014307338 15.0618160177
56 4 1 18.2036483437 19.9239861947 16.6517094984
57 4 2 19.9943012825 25.2883911749 15.4588514365
58 4 2 19.7682039003 25.9390249466 16.2328060088
59 4 2 19.2779151868 26.4349473572 16.9990487584
60 4 2 18.5736155422 26.7208123383 17.7031036102
61 4 2 17.7249918911 26.7604199944 18.2961627502
62 4 2 16.8148859055 26.5400161273 18.7395353266
63 4 2 15.9317432078 26.0695458941 19.0081740179
64 4 2 15.1615517891 25.3817473328 19.0929580292
65 4 2 14.5800044328 24.5291673775 19.0015244283
66 4 2 14.2455995206 23.5793723461 18.7575720473
67 4 2 14.1943090608 22.6087894508 18.3987013974
68 4 2 14.4362999362 21.6957406621 17.9729874831
69 4 2 14.9550072197 20.9133038704 17.5345978935
70 4 2 15.7086440231 20.3226520316 17.1388555719
71 4 2 16.6340102604 19.9674774158 16.837196277
72 4 2 17.6522531669 19.8700091738 16.6724803509
73 5 1 56.3635461537 53.676615664 46.2813156121
74 5 1 54.2799666603 49.2598361005 48.8637071091
75 5 2 56.0052653883 53.94800806 45.9567194806
76 5 2 55.2937498802 54.2408006531 45.2628403914
77 5 2 54.5713102589 54.2314346346 44.5202481195
78 5 2 53.8876132509 53.9196878066 43.8069302887
79 5 2 53.2887942974 53.3328991737 43.198206236
80 5 2 52.8132524316 52.5234770659 42.7598618548
81 5 2 52.4881503097 51.5641222595 42.542153387
82 5 2 52.3269384075 50.5412014954 42.5752267008
83 5 2 52.3281290449 49.5468753817 42.866369575
84 5 2 52.4754319849 48.6706982006 43.3993474379
85 5 2 52.7392392441 47.9914552747 44.1358831049
86 5 2 53.0793237823 47.569981896 45.0191456418
87 5 2 53.4485060889 47.4436183507 45.9789303521
88 5 2 53.7969544695 47.6228064528 46.9380577478
89 5 2 54.0767270718 48.0901378002 47.8194082536
90 5 2 54.2461416568 48.8019405041 48.5529514494
91 6 1 39.9559941424 57.5028845773 51.4700930447
92 6 1 37.4720291502 54.1295535741 47.8689061679
93 6 2 39.7890533568 58.0311423789 51.4487375492
94 6 2 39.5183416537 58.994026272 51.1785158003
95 6 2 39.3069295999 59.8464617975 50.6288717069
96 6 2 39.1552488638 60.5087605142 49.8466930985
97 6 2 39.0582867639 60.9185644427 48.9000627047
98 6 2 39.0060431612 61.0365298288 47.8720525954
99 6 2 38.9844419454 60.8499132211 46.8531523842
100 6 2 38.9766140342 60.3737330033 45.9330213418
101 6 2 38.9644349458 59.649400508 45.1923161932
102 6 2 38.9301767962 58.7409454845 44.6953394728
103 6 2 38.858124149 57.7291799587 44.48417852
104 6 2 38.7360064352 56.7043324325 44.574869331
105 6 2 38.5561163829 55.7578237972 44.9559349207
106 6 2 38.3160125143 54.9739345636 45.5894314187
107 6 2 38.0187416801 54.4221229188 46.4144065522
108 6 2 37.6725613471 54.1506937976 47.3524552825
109 7 1 18.1404572886 45.6833506909 8.12361122847
110 7 1 19.6123250247 41.797704556 4.4830960804
111 7 2 17.6357304214 45.6181712873 8.34357491393
112 7 2 16.6268105067 45.47387703 8.52988053391
113 7 2 15.6129806389 45.2959396117 8.41182425245
114 7 2 14.685754558 45.0815030345 8.00228944266
115 7 2 13.9287523001 44.8310381014 7.34072696646
116 7 2 13.4100784547 44.5482995036 6.48955933395
117 7 2 13.1761146137 44.2399835907 5.52849105845
118 7 2 13.247291813 43.9151180162 4.54724380317
119 7 2 13.6162282982 43.5842388911 3.63737849137
120 7 2 14.2484023518 43.2584304452 2.88394977296
121 7 2 15.0852988556 42.9483147297 2.35775352049
122 7 2 16.0497427872 42.6630834453 2.10887397455
123 7 2 17.0529335171 42.4096601433 2.16211869917
124 7 2 18.0025387485 42.1920691623 2.51475743859
125 7 2 18.81111036 42.0110688209 3.13677097285
126 7 2 19.4040550671 41.8640822984 3.97358728937
127 8 1 40.6395970003 56.7641309801 5.38426446563
128 8 1 39.6125692939 51.667494918 3.51677791908
129 8 2 40.196371245 57.0362778581 5.57627643052
130 8 2 39.2730469433 57.480538206 5.7297527755
131 8 2 38.2925257604 57.7939601789 5.61230113488
132 8 2 37.3344996027 57.9339236709 5.2434568408
133 8 2 36.4766100154 57.873618853 4.66566899385
134 8 2 35.7873713628 57.6044898173 3.940431341
135 8 2 35.3199259274 57.1370144253 3.14267728493
136 8 2 35.1072001326 56.4997492787 2.35394990467
137 8 2 35.1589033876 55.7367268616 1.65496952187
138 8 2 35.4606431001 54.903442097 1.11827625921
139 8 2 35.9752365234 54.0617941333 0.801618202156
140 8 2 36.6460998637 53.274444402 0.742687815272
141 8 2 37.402405742 52.599105196 0.955686374831
142 8 2 38.1655389204 52.0832793479 1.43002956044
143 8 2 38.8562618707 51.7599304744 2.13131218756
144 8 2 39.4019370636 51.6444784302 3.00444414811
145 9 1 17.495261947 20.5331010446 41.7765940291
146 9 1 15.8976038942 17.3554259649 46.0036332879
147 9 2 17.2927620731 21.049180072 41.7827443594
148 9 2 16.7086222545 21.9038251322 41.8253178805
149 9 2 15.9052953613 22.5511632487 41.9205506302
150 9 2 14.9565519211 22.9363718214 42.0785071164
151 9 2 13.9494167917 23.0285206574 42.3035347463
152 9 2 12.9762370768 22.8233911755 42.5938675714
153 9 2 12.1262649351 22.3438609188 42.9417872494
154 9 2 11.4775224842 21.6378183273 43.3343265502
155 9 2 11.0896902933 20.7737978352 43.7544512842
156 9 2 10.9986676587 19.83473314 44.1826129235
157 9 2 11.2133004789 18.9103980177 44.5985303977
158 9 2 11.7145749747 18.0892236831 44.9830386592
159 9 2 12.4573507444 17.450238521 45.3198355264
160 9 2 13.3744751905 17.05586486 45.5969675835
161 9 2 14.3829042996 16.9462293441 45.807919703
162 9 2 15.3912718825 17.1355054966 45.9522088815
163 10 1 49.1199076918 53.176458287 19.027771209
164 10 1 48.0421529221 57.1014677397 15.2927027338
165 10 2 48.857747711 52.6952992478 18.9432743953
166 10 2 48.1776879125 51.9335429405 18.7680716273
167 10 2 47.3063759713 51.4097249191 18.56837137
168 10 2 46.3238534823 51.1701199459 18.3432291336
169 10 2 45.3202985847 51.2350975233 18.0940193965
170 10 2 44.3878064654 51.5972652685 17.8243103256
171 10 2 43.611995129 52.2221427091 17.5395385471
172 10 2 43.0642015457 53.0513040862 17.246513613
173 10 2 42.7949794767 54.007703706 16.9527973282
174 10 2 42.8294916344 55.0026984491 16.6660145124
175 10 2 43.1652161681 55.9441273535 16.3931580182
176 10 2 43.7721765242 56.7447118406 16.139951351
177 10 2 44.5956737289 57.3300109237 15.9103269872
178 10 2 45.5612720532 57.6452063054 15.7060679393
179 10 2 46.581583631 57.6600989187 15.5266452389
180 10 2 47.5642336294 57.3718614913 15.3692661509
181 11 1 14.2365838104 18.3211203721 28.7421627295
182 11 1 13.8656619331 13.4019817915 31.2286227931
183 11 2 13.9185742 18.718530451 28.961973341
184 11 2 13.1547372467 19.2993775561 29.3526391323
185 11 2 12.2336884825 19.6207093784 29.7017308755
186 11 2 11.2407571652 19.6493948848 29.9962042222
187 11 2 10.2678244548 19.3789769715 30.2279931444
188 11 2 9.40494869216 18.8302610122 30.3947451322
189 11 2 8.73215682126 18.0494185036 30.5000356183
190 11 2 8.31215014746 17.103778657 30.5530420869
191 11 2 8.18458928107 16.0756915206 30.5677075709
192 11 2 8.36247917864 15.0550219925 30.5614697812
193 11 2 8.83098377603 14.130958876 30.5536717065
194 11 2 9.54877825593 13.3838855577 30.5637985511
195 11 2 10.4518156945 12.8780532776 30.6097017109
196 11 2 11.4591647675 12.6557247997 30.7059716663
197 11 2 12.4803864237 12.733322274 30.8626080988
198 11 2 13.4237771633 13.0999304018 31.084108447
199 12 1 26.122576227 49.3058312539 46.999089782
200 12 1 26.8042894776 54.7394321194 46.2716011293
201 12 2 25.6078712936 49.1207835625 46.9084378569
202 12 2 24.5861572675 48.9506970546 46.8835171843
203 12 2 23.5643718504 49.0308999998 47.0350825497
204 12 2 22.6302822699 49.3647125066 47.3342411651
205 12 2 21.8636625128 49.93233885 47.7386475121
206 12 2 21.3290221391 50.6926717988 48.1963630231
207 12 2 21.0697264078 51.5870394295 48.6505901425
208 12 2 21.1040436499 52.5445529159 49.0448492723
209 12 2 21.4234801584 53.4885678556 49.3281267366
210 12 2 21.9935543675 54.3436702028 49.4595245415
211 12 2 22.7569397547 55.0425500568 49.4119881183
212 12 2 23.6386900003 55.5321367795 49.1747722748
213 12 2 24.5530701443 55.7784362425 48.7544205911
214 12 2 25.4113710984 55.7696293009 48.1741689894
215 12 2 26.1299952427 55.5171490765 47.4718278425
216 12 2 26.6380761253 55.0546388598 46.6963356585
217 13 1 46.1478608789 10.8689007119 58.6116628201
218 13 1 44.0943926607 9.96487908181 53.5634944166
219 13 2 46.5880991344 10.5588510445 58.7437274639
220 13 2 47.2743026774 9.80230244715 58.9175346231
221 13 2 47.7366219683 8.87651278985 58.9687634716
222 13 2 47.9424514523 7.86532903472 58.8760723283
223 13 2 47.8825639352 6.86038158764 58.6312374348
224 13 2 47.5719516171 5.95273243169 58.2399025287
225 13 2 47.0484595935 5.22457507075 57.7210644324
226 13 2 46.3693363764 4.74174281134 57.1053415431
227 13 2 45.6060158448 4.54770823266 56.4321830481
228 13 2 44.8376062379 4.65962077722 55.7462732365
229 13 2 44.1436796508 5.06674362494 55.0934586459
230 13 2 43.59701925 5.73143232566 54.516569273
231 13 2 43.2569852831 6.59256599014 54.0515147338
232 13 2 43.1641045504 7.5711182957 53.724011198
233 13 2 43.3363764953 8.57736052441 53.5472374292
234 13 2 43.7676326036 9.51904009583 53.5206335755
235 14 1 35.059312409 19.4831498574 21.1058975623
236 14 1 32.6530896434 14.5434387807 20.533763363
237 14 2 35.2447239037 19.7086550764 20.6345679941
238 14 2 35.6931122315 19.9200374172 19.7247793237
239 14 2 36.22591559 19.838091671 18.8399881127
240 14 2 36.7807901353 19.4652636418 18.0484304643
241 14 2 37.2933802938 18.8305122765 17.4098444914
242 14 2 37.7031846008 17.9866701336 16.9700253479
243 14 2 37.9590702472 17.0056278374 16.7566511222
244 14 2 38.0239336983 15.9717814393 16.7767600538
245 14 2 37.8780825822 14.9743399437 17.0161090164
246 14 2 37.5210305964 14.0991941452 17.4404717409
247 14 2 36.9715418332 13.4210879125 17.9987584483
248 14 2 36.265920483 12.9968054847 18.6276725464
249 14 2 35.4547018041 12.8599957394 19.2574799453
250 14 2 34.5980459689 13.0181051874 19.8183651329
251 14 2 33.7602546254 13.4516992434 20.2467946726
252 14 2 33.0039099735 14.1162336365 20.4913081061
253 15 1 51.6899307465 52.1894678902 52.3459140163
254 15 1 49.0787007907 48.6632769952 55.7023178882
255 15 2 51.6373537252 52.7242511556 52.4823841739
256 15 2 51.3098621942 53.6714156225 52.7452125989
257 15 2 50.7123066092 54.474251799 53.0132264188
258 15 2 49.8999355905 55.0588072788 53.2811783367
259 15 2 48.9475776112 55.3710253573 53.5438266981
260 15 2 47.9428205814 55.3816721564 53.7964132536
261 15 2 46.9780284449 55.0890012141 54.0350968602
262 15 2 46.1419224522 54.5189126696 54.2573035919
263 15 2 45.5114944557 53.7225925354 54.4619613456
264 15 2 45.1449893082 52.7718472283 54.6495975606
265 15 2 45.0765960001 51.7525586074 54.8222911441
266 15 2 45.3133314247 50.7568560712 54.9834829841
267 15 2 45.8344008067 49.8747192098 55.1376623219
268 15 2 46.5930930904 49.1857764056 55.2899575695
269 15 2 47.5210385278 48.7520469191 55.4456688688
270 15 2 48.5344403986 48.6122879988 55.6097849976
271 16 1 7.19561553889 38.9474782912 17.0769583589
272 16 1 2.87346708434 36.9958469675 19.9103589614
273 16 2 7.25220624696 39.4988985583 17.0876713814
274 16 2 7.13110494537 40.5270064054 17.0454962635
275 16 2 6.72154440606 41.4729813014 16.9413729133
276 16 2 6.05580812308 42.2546867073 16.8028742815
277 16 2 5.18952932482 42.8049588094 16.6607065337
278 16 2 4.19662015393 43.0777283209 16.5459102657
279 16 2 3.16253477307 43.0522195745 16.4870312362
280 16 2 2.17648044638 42.7348441688 16.5075184968
281 16 2 1.3232865358 42.1586165683 16.623587074
282 16 2 0.675672531445 41.3801449234 16.8427400129
283 16 2 0.28761986443 40.4744713884 17.1630844942
284 16 2 0.189451643734 39.5282322299 17.5735043604
285 16 2 0.385068785838 38.6317611628 18.0546733232
286 16 2 0.851594456628 37.8708556733 18.5808165031
287 16 2 1.54145923367 37.3189568078 19.1220597412
288 16 2 2.38673693194 37.0304552172 19.6471525484
289 17 1 20.2070966311 20.1195217108 28.6326908619
290 17 1 17.2340050648 17.8375268793 32.6911655987
291 17 2 20.2850874401 20.6664387154 28.6793900245
292 17 2 20.197603567 21.6920772533 28.7971277532
293 17 2 19.8170348898 22.6417112797 28.9608736205
294 17 2 19.1805299283 23.430767287 29.1746540276
295 17 2 18.3485651105 23.9893080251 29.4379348607
296 17 2 17.399432508 24.2684070942 29.745670175
297 17 2 16.4221037227 24.2446084562 30.0887621181
298 17 2 15.5081203632 23.922064389 30.4548901756
299 17 2 14.743250272 23.3321570181 30.8296341528
300 17 2 14.1996700154 22.5306379196 31.197788537
301 17 2 13.9293861832 21.5925465128 31.5447484392
302 17 2 13.9594951261 20.6053704181 31.8578407908
303 17 2 14.2897131966 19.6610711937 32.1274794599
304 17 2 14.8924026021 18.8477022859 32.3480390019
305 17 2 15.7150905163 18.2413831927 32.5183674029
306 17 2 16.6852518366 17.8993613745 32.6418910838
307 18 1 9.99577199881 45.259379338 27.5875640457
308 18 1 9.52637699449 43.1586227617 22.4998846927
309 18 2 9.91380243416 44.8964691942 27.9986100359
310 18 2 9.56473709416 44.1674742171 28.6468150367
311 18 2 8.99693699312 43.4178343651 29.0816634569
312 18 2 8.27050796426 42.7000686116 29.2564867975
313 18 2 7.46001444361 42.0637906916 29.1483171502
314 18 2 6.64768312093 41.5511869414 28.7599806612
315 18 2 5.91590819674 41.1931711276 28.1198399356
316 18 2 5.33974137114 41.0065667394 27.2792088616
317 18 2 4.98005108192 40.9925735727 26.3076754868
318 18 2 4.87797450922 41.1366583721 25.2867592537
319 18 2 5.05116803141 41.4098794979 24.3024807202
320 18 2 5.49219789349 41.7715248794 23.437521016
321 18 2 6.1692177739 42.1728228114 22.7636856782
322 18 2 7.02887149168 42.5613873648 22.3353597689
323 18 2 8.00115627973 42.8859932237 22.184550822
324 18 2 9.00580334992 43.1012447364 22.3179714419
325 19 1 47.3502118332 8.28649880808 7.08681009681
326 19 1 49.3654519587 5.99539642929 2.48163385826
327 19 2 47.0664241459 7.94104711774 7.41469615356
328 19 2 46.4224799505 7.24269711314 7.82833023763
329 19 2 45.6916461473 6.51836088686 7.94944586194
330 19 2 44.9507682578 5.81787690149 7.76540198058
331 19 2 44.2776072954 5.18890955159 7.29137202091
332 19 2 43.7437520565 4.67260468159 6.5689608663
333 19 2 43.4080939931 4.29983925195 5.66241268217
334 19 2 43.3114594145 4.08840698682 4.65275523201
335 19 2 43.4728882781 4.04139652359 3.63041441334
336 19 2 43.8878987484 4.1469098919 2.6869721788
337 19 2 44.5288957039 4.37914698176 1.90681908599
338 19 2 45.3476859595 4.70075715469 1.35946232365
339 19 2 46.2798709455 5.06624365457 1.09319031721
340 19 2 47.2507164659 5.42611051533 1.1306713679
341 19 2 48.1819645203 5.73137398599 1.46688749762
342 19 2 48.9989663113 5.93802726865 2.06959182429
343 20 1 28.1733210399 56.9189564608 36.5145358051
344 20 1 32.5419579524 58.4810632382 33.5157318763
345 20 2 28.2499779967 56.9323019895 37.0634685842
346 20 2 28.5872451589 56.8344142597 38.0382089931
347 20 2 29.157788631 56.5986209649 38.870273702
348 20 2 29.920246232 56.2622771059 39.4858882131
349 20 2 30.8157633211 55.8719025983 39.8310068857
350 20 2 31.7733572408 55.4789421075 39.8762390519
351 20 2 32.7163871962 55.1350760038 39.6195278971
352 20 2 33.5695398592 54.8875098356 39.0863379335
353 20 2 34.2656939763 54.7746716696 38.3273339779
354 20 2 34.7520382922 54.8227094751 37.4137631887
355 20 2 34.9948851538 55.0431078067 36.4309610782
356 20 2 34.9827410505 55.4316410174 35.4705734085
357 20 2 34.7273542165 55.9687584158 34.6222029254
358 20 2 34.2626438107 56.6213662586 33.9652423076
359 20 2 33.6416082761 57.3458441574 33.561637736
360 20 2 32.9314946736 58.0920209601 33.4502426652
361 21 1 10.8967762782 14.6386191258 36.8172962036
362 21 1 11.9510867848 14.1325792241 31.4181903485
363 21 2 11.2715929227 14.4036855366 37.1515121215
364 21 2 11.9389839192 13.7775787853 37.6373409029
365 21 2 12.5238260379 12.9626139556 37.8966515925
366 21 2 12.9892220764 12.0369485 37.8965973994
367 21 2 13.3091620235 11.0888299375 37.6279719486
368 21 2 13.4708938018 10.2085523274 37.1060484175
369 21 2 13.4760855859 9.48022620783 36.3691874265
370 21 2 13.3406737521 8.97411214451 35.4753405708
371 21 2 13.0934103211 8.74021666821 34.4967682879
372 21 2 12.7732422873 8.80373431306 33.5134535111
373 21 2 12.4257617051 9.16275120211 32.6058114399
374 21 2 12.0990500946 9.78841949211 31.8473599084
375 21 2 11.8392959396 10.6275867773 31.2980184321
376 21 2 11.6865847308 11.6076407892 30.9986467037
377 21 2 11.6712452804 12.6431278105 30.9673203417
378 21 2 11.8110853322 13.6435415537 31.1976833456
379 22 1 23.0911070759 46.0035077505 28.8235505072
380 22 1 19.8359191268 42.0326971254 30.861786376
381 22 2 23.0038463908 46.5085454761 29.0349838455
382 22 2 22.6161139859 47.4060346342 29.377951489
383 22 2 21.9654708042 48.168081582 29.6413863209
384 22 2 21.107725159 48.7211782129 29.8197301918
385 22 2 20.1175621996 49.010861683 29.915180766
386 22 2 19.0817365595 49.0066785543 29.9374912102
387 22 2 18.0911649035 48.7049605434 29.9030812188
388 22 2 17.2326391169 48.1291588766 29.8335404017
389 22 2 16.5809154565 47.3277067725 29.7536604503
390 22 2 16.1919007185 46.3696048843 29.6891754399
391 22 2 16.0975564827 45.3381320741 29.6644162386
392 22 2 16.3029859003 44.3232547674 29.7000928127
393 22 2 16.7859685553 43.4134267541 29.8114065694
394 22 2 17.4989857957 42.6875268616 30.0066647888
395 22 2 18.373551932 42.207669361 30.2865234376
396 22 2 19.3264565249 42.0135424165 30.6439273793
397 23 1 33.3851452188 41.1078139264 51.4186688004
398 23 1 30.8159137887 43.8538379203 55.4654444484
399 23 2 33.5878425022 41.4261172252 51.0124934573
400 23 2 33.7499796015 42.1125889122 50.2536007144
401 23 2 33.6237940593 42.8755400482 49.5640843737
402 23 2 33.2271875008 43.6606606085 49.0166001687
403 23 2 32.6027097043 44.4116198844 48.6708579833
404 23 2 31.8136803021 45.0752008769 48.5681794556
405 23 2 30.9384173659 45.6061508842 48.7277316208
406 23 2 30.0630989233 45.9713061641 49.1447798875
407 23 2 29.2739080612 46.1526147208 49.7911195827
408 23 2 28.6491775678 46.148781696 50.6176467328
409 23 2 28.2522501083 45.9753873915 51.5588337589
410 23 2 28.1257047101 45.6634671667 52.5387021413
411 23 2 28.2874757984 45.2566826484 53.4777476577
412 23 2 28.7292185213 44.8073420901 54.300186981
413 23 2 29.4170693607 44.3716326147 54.9408651272
414 23 2 30.2947327014 44.0044989083 55.3511941574
415 24 1 7.14350002869 33.1414458315 31.1786727423
416 24 1 10.844978833 36.8669055334 29.4646144784
417 24 2 6.87848879474 32.8718010217 30.7731578715
418 24 2 6.34516460402 32.5847663095 29.9325471454
419 24 2 5.81714009031 32.5997160247 29.041246618
420 24 2 5.35657745895 32.9128761681 28.1675974903
421 24 2 5.01948994503 33.493291657 27.3783320854
422 24 2 4.85063635669 34.2856477982 26.7324913756
423 24 2 4.87944142941 35.2153120745 26.2760435556
424 24 2 5.11731384001 36.1951366992 26.0376941645
425 24 2 5.55660633625 37.133401904 26.0262696523
426 24 2 6.17131276343 37.9421759504 26.2299128729
427 24 2 6.91943845589 38.5453298732 26.6171638314
428 24 2 7.74682793854 38.8854764318 27.1398271781
429 24 2 8.59210105365 38.9292008036 27.7373650859
430 24 2 9.39224759821 38.6701062565 28.342415112
431 24 2 10.0883705355 38.1293971932 28.8869301038
432 24 2 10.6310543025 37.353946427 29.3083805153
433 25 1 34.2059134007 21.0382115993 35.5791110597
434 25 1 30.6089586838 17.8421666087 38.2930020384
435 25 2 34.3338419303 21.5139530087 35.833445467
436 25 2 34.3393549882 22.4262090483 36.3245753231
437 25 2 34.0423791695 23.2907028298 36.8123312826
438 25 2 33.4706419548 24.0231647826 37.2706609196
439 25 2 32.6769145916 24.5513596844 37.676193939
440 25 2 31.7342021362 24.8216707087 38.0103723161
441 25 2 30.7290892377 24.8039864551 38.2611418111
442 25 2 29.7538481789 24.4944455232 38.4240506811
443 25 2 28.8980285043 23.9157884684 38.502655444
444 25 2 28.2402948183 23.1152850619 38.508196712
445 25 2 27.841256717 22.1604257766 38.4585746395
446 25 2 27.7379443852 21.1327702113 38.376717372
447 25 2 27.9404333944 20.120513151 38.2884912067
448 25 2 28.4309263411 19.2104458483 38.220342949
449 25 2 29.1653750328 18.4800452326 38.1968893566
450 25 2 30.0774953627 17.9904120947 38.238673388
451 26 1 39.7535997678 19.8097510657 18.442282063
452 26 1 42.7115964256 23.0223130901 15.0588382445
453 26 2 39.7754089283 19.2676687581 18.3280335607
454 26 2 39.7631773341 18.3257530036 17.8966461353
455 26 2 39.6987630622 17.5497505861 17.2131835827
456 26 2 39.6064033724 17.008242955 16.3347251691
457 26 2 39.5128826747 16.7484379865 15.3361235125
458 26 2 39.445091202 16.7918671123 14.303181966
459 26 2 39.4275740369 17.1324227868 13.3248338722
460 26 2 39.4802938934 17.7369151734 12.4850365262
461 26 2 39.6168115685 18.54809731 11.8551186928
462 26 2 39.8430499123 19.489883016 11.4872791802
463 26 2 40.1567539755 20.4742819445 11.4098290583
464 26 2 40.5476965424 21.4094196675 11.6246111798
465 26 2 40.998610314 22.2079117838 12.1068322099
466 26 2 41.4867617765 22.7948287745 12.8073224717
467 26 2 41.9860232997 23.1145256276 13.6570176316
468 26 2 42.4692546016 23.1357137325 14.573253728
469 27 1 56.9203250062 47.820071569 41.1756937796
470 27 1 62.4314001339 47.7994372574 40.7940968411
471 27 2 56.7215938932 47.9313123141 41.6811767461
472 27 2 56.5009931874 47.971480419 42.6926963272
473 27 2 56.5038131462 47.8024560738 43.7148865393
474 27 2 56.7420804054 47.4530782058 44.6607268164
475 27 2 57.2063612085 46.9686244842 45.4501556851
476 27 2 57.8666212686 46.406684381 46.0173681537
477 27 2 58.6749633134 45.8319100447 46.3168136616
478 27 2 59.5699927935 45.3101234302 46.3273478909
479 27 2 60.4824138312 44.9023168029 46.0541600145
480 27 2 61.3413453552 44.659093457 45.5282997171
481 27 2 62.08078172 44.6160553606 44.8038470991
482 27 2 62.6456089449 44.7905581314 43.9529834202
483 27 2 62.9966282053 45.1801291183 43.0594119702
484 27 2 63.1141287013 45.7626927773 42.2107287385
485 27 2 62.999684244 46.4985827981 41.490438273
486 27 2 62.6760098073 47.3341575823 40.9703424643
487 28 1 5.84937969493 55.072651136 34.8467171234
488 28 1 9.62840073418 58.4085149112 37.1070277036
489 28 2 5.35528716358 55.0751479935 35.0982085233
490 28 2 4.5604729694 55.0452670341 35.7621569672
491 28 2 3.99435197903 54.9886648609 36.6280398862
492 28 2 3.70660142288 54.9290474896 37.6215666336
493 28 2 3.72152581029 54.8903957631 38.6568121686
494 28 2 4.03584163847 54.8947795619 39.6440488949
495 28 2 4.61897667503 54.9603461935 40.4979250903
496 28 2 5.41585653519 55.0996663133 41.145244489
497 28 2 6.35192456482 55.3185881439 41.5316379247
498 28 2 7.33993748014 55.6157044243 41.6265189356
499 28 2 8.28791735989 55.9824806787 41.4258716381
500 28 2 9.10753518699 56.4040331107 40.9526167641
501 28 2 9.72216180239 56.8604852216 40.2545224974
502 28 2 10.0738524481 57.3287795005 39.3998505315
503 28 2 10.128628277 57.7847790545 38.4711341988
504 28 2 9.87957343383 58.2054676217 37.5576557778
505 29 1 26.5185553066 28.5365190205 48.4727933706
506 29 1 21.9367412962 25.9972503479 50.2269558611
507 29 2 26.5980781515 29.0444934363 48.6802052749
508 29 2 26.5245959695 30.0278363987 48.9981470911
509 29 2 26.164150767 30.9745424359 49.2155797157
510 29 2 25.5435355919 31.7961350864 49.3307853247
511 29 2 24.7132572895 32.4155416391 49.3513638131
512 29 2 23.7429329389 32.7741181057 49.2935400852
513 29 2 22.7149444423 32.8369944629 49.1806851975
514 29 2 21.7169296344 32.5962529621 49.04118615
515 29 2 20.8337943286 32.071649811 48.9058584864
516 29 2 20.1399733784 31.3088144478 48.8051375399
517 29 2 19.6926461401 30.3750905405 48.7663043342
518 29 2 19.5265247268 29.3533977907 48.8109989904
519 29 2 19.6506900923 28.3346740252 48.9532482886
520 29 2 20.0477643263 27.4095864557 49.1981871639
521 29 2 20.6754946047 26.660267605 49.541590671
522 29 2 21.4706044213 26.1528291467 49.9702590763
523 30 1 42.9084998404 18.5778963832 12.0328128513
524 30 1 42.9372232672 13.741041538 14.7015206346
525 30 2 43.028075826 19.018755447 12.3470205176
526 30 2 43.0868109283 19.7526400839 13.0760016824
527 30 2 42.938949439 20.3051301268 13.9399124091
528 30 2 42.6116521786 20.6188502113 14.871527256
529 30 2 42.1484350581 20.6581882163 15.7974497322
530 30 2 41.6052027209 20.4125412139 16.6448021908
531 30 2 41.0451529832 19.8972818981 17.3478684324
532 30 2 40.5330165226 19.1523574044 17.8540835602
533 30 2 40.1291568493 18.2386482358 18.1288251307
534 30 2 39.8840683339 17.2324191668 18.1585688961
535 30 2 39.8337737802 16.218367914 17.9521215041
536 30 2 39.9965410431 15.2819051648 17.5398177947
537 30 2 40.3712179624 14.5013696222 16.9707558614
538 30 2 40.9373373791 13.9408876407 16.3083218906
539 30 2 41.6569826622 13.6445282812 15.6244126804
540 30 2 42.4782437082 13.6322865333 14.9928824397
541 31 1 26.0054972857 13.7397351269 27.7394280677
542 31 1 27.2329904729 14.5513298042 33.0641407939
543 31 2 26.0944994447 13.224483562 27.5551021915
544 31 2 26.4722871286 12.2915979898 27.3092343691
545 31 2 27.0891030106 11.4635583079 27.2235695328
546 31 2 27.8832343513 10.8052947954 27.321009632
547 31 2 28.7768065813 10.3662630871 27.6077670905
548 31 2 29.6828813598 10.1759364247 28.0727985611
549 31 2 30.5133807721 10.2411192499 28.6888114966
550 31 2 31.1871153962 10.5453269976 29.4147517928
551 31 2 31.6371845015 11.0502886194 30.1995457607
552 31 2 31.8170738718 11.6994348885 30.986755356
553 31 2 31.7048954514 12.4230545323 31.7197223568
554 31 2 31.3053823832 13.1446482295 32.3467326085
555 31 2 30.6494575953 13.7879013182 32.825729631
556 31 2 29.7914152585 14.2836396738 33.1281479545
557 31 2 28.8039720184 14.5761347451 33.2415167855
558 31 2 27.7716390666 14.6281830633 33.1705966868
559 32 1 26.2683747876 17.964520424 16.585651706
560 32 1 24.5928091744 12.7746108444 17.4661683117
561 32 2 26.0796358415 18.3361221257 16.9512626653
562 32 2 25.5184164784 18.9336008789 17.5849045018
563 32 2 24.732663472 19.3490935217 18.1172653644
564 32 2 23.7946817527 19.5347527674 18.5162277057
565 32 2 22.7906514907 19.4636800292 18.7618328971
566 32 2 21.8127730045 19.1323771545 18.8481004042
567 32 2 20.9508629484 18.5610652721 18.7835728967
568 32 2 20.2841677638 17.7918416902 18.5905376068
569 32 2 19.8741405786 16.8848428397 18.3029949076
570 32 2 19.7588399186 15.9127629989 17.9635592701
571 32 2 19.9494607744 14.9542284043 17.6195750678
572 32 2 20.4293142081 14.0866306795 17.3188012637
573 32 2 21.1553485056 13.3790727955 17.1050583085
574 32 2 22.0620732248 12.8860705196 17.0142340237
575 32 2 23.0675284747 12.6425834487 17.0710125225
576 32 2 24.0807553403 12.6608285358 17.286624319
577 33 1 61.3647114899 23.9970353225 5.66294015835
578 33 1 57.6770764595 20.0287413646 6.7455213364
579 33 2 61.2972491356 24.4642342196 5.95372463076
580 33 2 60.9487306387 25.3198685812 6.42263262579
581 33 2 60.3355339092 26.0784702067 6.77186514998
582 33 2 59.508286413 26.66407281 6.98676322393
583 33 2 58.537125771 27.0164785033 7.06491209434
584 33 2 57.505306903 27.0967446742 7.01636133231
585 33 2 56.5016135636 26.8907335 6.86270884181
586 33 2 55.612265941 26.4104005731 6.63513226843
587 33 2 54.9130619168 25.6927051804 6.37154724034
588 33 2 54.4624682918 24.7962415632 6.11315146013
589 33 2 54.2962916933 23.7958982086 5.90066964429
590 33 2 54.4244148969 22.776031964 5.77064157419
591 33 2 54.829896038 21.8227791362 5.75209159266
592 33 2 55.4705128171 21.0162043972 5.8638831127
593 33 2 56.2826109497 20.423003103 6.11299926781
594 33 2 57.1869060844 20.0904221905 6.49390641806