LAMMPS input file for bananas

648 atoms

2 atom types

0 33.7373066121 xlo xhi
0 33.7373066121 ylo yhi
0 33.7373066121 zlo zhi

Masses

 1 1
 2 1

Atoms

1 1 1 22.4532180562 28.0406720591 32.0066576619
2 1 1 26.0646837454 26.2924148235 28.2333902263
3 1 2 22.5684006654 27.8936932942 32.5286834859
4 1 2 22.8057544525 27.4044765452 33.4101756431
5 1 2 23.0687951209 26.6779292348 34.09983997
6 1 2 23.3525236652 25.7820170179 34.5351992282
7 1 2 23.6500555221 24.800141999 34.6769543431
8 1 2 23.9532480509 23.8235412031 34.5125662447
9 1 2 24.2534426795 22.9429709455 34.0573987179
10 1 2 24.542254074 22.2404350167 33.3533180988
11 1 2 24.8123344039 21.7817105984 32.4648774454
12 1 2 25.0580430471 21.6103531251 31.4734329688
13 1 2 25.2759606935 21.7437265041 30.4697289725
14 1 2 25.465200992 22.171420515 29.545627131
15 1 2 25.6274913349 22.8561996298 28.7857339282
16 1 2 25.7670154184 23.7373967755 28.2596893564
17 1 2 25.890031927 24.7364427227 28.0158197085
18 1 2 26.0043040976 25.7640271314 28.0767329678
19 2 1 1.46550592043 7.43348781212 20.4344016583
20 2 1 5.43155526122 10.3900692474 18.0124780901
21 2 2 1.24632533044 7.66178266961 20.8896181767
22 2 2 1.06202587875 8.11216605141 21.8038866234
23 2 2 1.18374625535 8.57291072332 22.7234499808
24 2 2 1.59985203072 9.02045260461 23.5596679663
25 2 2 2.27187756462 9.43243095839 24.2314966565
26 2 2 3.13803188538 9.78972641949 24.672875085
27 2 2 4.11883051342 10.0782035935 24.8387462471
28 2 2 5.12433992655 10.289999401 24.7091637362
29 2 2 6.06237438392 10.4242397435 24.2911097226
30 2 2 6.84689802432 10.4871191712 23.617858576
31 2 2 7.40586644498 10.4913362928 22.7459441355
32 2 2 7.68779305502 10.4549363836 21.7500070369
33 2 2 7.66644172512 10.399666683 20.7159917314
34 2 2 7.34321803094 10.3489942826 19.7333132375
35 2 2 6.74704114441 10.3259672613 18.8867075753
36 2 2 5.93170804961 10.3511140115 18.2485086591
37 3 1 7.26458676211 28.9832337828 15.1763450874
38 3 1 6.16163071275 26.2484768913 19.8283583746
39 3 2 7.80200126234 29.0154845837 15.0439581831
40 3 2 8.82876584578 29.14901828 15.0190280163
41 3 2 9.80794961593 29.352210776 15.2884908615
42 3 2 10.6565579361 29.5892738473 15.8328834499
43 3 2 11.3034972265 29.8213321988 16.6076845516
44 3 2 11.6960546569 30.0099666812 17.5473727801
45 3 2 11.8047025596 30.1207159335 18.5713984182
46 3 2 11.6257896736 30.1262172989 19.5915249718
47 3 2 11.1818739323 30.0087007443 20.5198713216
48 3 2 10.5196664628 29.7616084764 21.2769214847
49 3 2 9.70577418602 29.39019264 21.7987719512
50 3 2 8.8206290536 28.9110366204 22.0429560509
51 3 2 7.95115722622 28.3505435823 21.9923144994
52 3 2 7.1828563503 27.7425300019 21.6565593489
53 3 2 6.59200303368 27.1251435268 21.0713888014
54 3 2 6.23870075577 26.5373860799 20.2952335623
55 4 1 30.5975582414 8.17092323399 11.5560728515
56 4 1 28.6700902717 4.33418090367 15.0058424733
57 4 2 30.5277428823 8.69474986131 11.723739878
58 4 2 30.1748769434 9.60457832932 12.0707212307
59 4 2 29.5649072332 10.3510731802 12.4493776202
60 4 2 28.7566846205 10.8647009878 12.8439165342
61 4 2 27.8271293671 11.0971525607 13.237097877
62 4 2 26.8642203732 11.0257459931 13.6118052862
63 4 2 25.9589765035 10.6554939658 13.9526061721
64 4 2 25.1971608423 10.0186468741 14.2471582917
65 4 2 24.6514639758 9.17175342568 14.4873346602
66 4 2 24.3748787439 8.19050661353 14.6699642696
67 4 2 24.3958703062 7.16284481862 14.7971211047
68 4 2 24.7157817374 6.18093682938 14.875935113
69 4 2 25.308711616 5.33278128852 14.9179423594
70 4 2 26.1238747604 4.69418622011 14.9380335928
71 4 2 27.0902309508 4.32185964793 14.9530970564
72 4 2 28.1229597578 4.24824104789 14.9804792401
73 5 1 10.4876502618 33.3856660301 23.5371692422
74 5 1 13.4192520051 31.4582506251 27.7830397068
75 5 2 9.94368435917 33.2809255009 23.5597805225
76 5 2 8.99887370605 32.8649133954 23.6432372713
77 5 2 8.21934710716 32.1987516993 23.7890630145
78 5 2 7.67257660518 31.345426508 24.0025493306
79 5 2 7.40482012037 30.3849825863 24.2828210009
80 5 2 7.43690535825 29.4072278368 24.6229157796
81 5 2 7.76233150709 28.5035479254 25.0104189544
82 5 2 8.34786174229 27.7585771045 25.4285948631
83 5 2 9.13655253509 27.2424843807 25.857912234
84 5 2 10.0529436648 27.0045780916 26.2778243273
85 5 2 11.0099359004 27.0688117883 26.66864163
86 5 2 11.9167294988 27.431601034 27.0133264198
87 5 2 12.6870999781 28.0621501002 27.2990456365
88 5 2 13.2472568887 28.9052587867 27.5183405278
89 5 2 13.5425693063 29.8863535413 27.6698064629
90 5 2 13.5425450664 30.9182843278 27.7582209558
91 6 1 28.1259046934 18.6453380557 10.6298909954
92 6 1 33.3730065725 20.2101710939 11.2264262915
93 6 2 27.9135849866 18.7216176148 10.1234499598
94 6 2 27.6033934818 19.0813954752 9.20310252941
95 6 2 27.4425838848 19.6899560304 8.38061083016
96 6 2 27.4606309432 20.487300381 7.71984267015
97 6 2 27.6707078464 21.3962232792 7.26992586566
98 6 2 28.0684855803 22.3293498574 7.06077057754
99 6 2 28.6325274867 23.1970992487 7.10034320514
100 6 2 29.3262430683 23.9158492683 7.37394030355
101 6 2 30.1012229612 24.4155580028 7.84552870187
102 6 2 30.9016511166 24.64614765 8.46102967967
103 6 2 31.6693920512 24.5820687676 9.15324787155
104 6 2 32.3492894978 24.2246289293 9.84799566407
105 6 2 32.8941935207 23.6018735487 10.470854888
106 6 2 33.2692579094 22.766029732 10.9539595242
107 6 2 33.4551161715 21.7887461355 11.2421812263
108 6 2 33.4496466558 20.7545626816 11.2981538908
109 7 1 30.2220652612 6.77378926754 22.1210603901
110 7 1 24.7583875398 7.25676913457 22.6226489975
111 7 2 30.443814654 7.04413425126 21.6908028531
112 7 2 30.689150157 7.4394576179 20.7654768576
113 7 2 30.6872593713 7.67443431206 19.7567743994
114 7 2 30.4279915413 7.74366814486 18.7564318881
115 7 2 29.9246540645 7.65686925284 17.8554237817
116 7 2 29.2127996132 7.43796908564 17.135670888
117 7 2 28.3469857523 7.12293921846 16.662573845
118 7 2 27.3958023913 6.75651278954 16.479052301
119 7 2 26.4356202845 6.38810738137 16.6016330829
120 7 2 25.54363036 6.06732094681 17.0189438894
121 7 2 24.7908082962 5.83941129578 17.6927497978
122 7 2 24.2354455749 5.74117115613 18.5614381159
123 7 2 23.9178366129 5.79757476878 19.5456339555
124 7 2 23.8566062017 6.01950165691 20.5554347102
125 7 2 24.0470119858 6.40274503194 21.4986040608
126 7 2 24.4613766956 6.92839521355 22.288978684
127 8 1 19.9093533744 16.5850183233 7.10289442192
128 8 1 14.5891359524 15.1829260455 6.84587544524
129 8 2 20.1897042337 16.5333070104 6.62738407776
130 8 2 20.6181423798 16.2216160161 5.7374471417
131 8 2 20.8778309749 15.6611754414 4.90608292137
132 8 2 20.9321553909 14.9088488827 4.19632812005
133 8 2 20.7632185365 14.0389890283 3.66013557625
134 8 2 20.3734720544 13.1366609206 3.33363911868
135 8 2 19.7854928712 12.2898888606 3.23386021548
136 8 2 19.0399254648 11.5816335965 3.35715658411
137 8 2 18.1917773994 11.0822310203 3.67955416043
138 8 2 17.3054057631 10.8429815332 4.15893217027
139 8 2 16.4486514601 10.8914743663 4.73886214924
140 8 2 15.6866559779 11.2290730108 5.35375101034
141 8 2 15.0759241872 11.8307909452 5.93481940416
142 8 2 14.6591743102 12.6475689858 6.41637048498
143 8 2 14.4614444477 13.6107466947 6.7417777279
144 8 2 14.4878105278 14.6383203077 6.86864604826
145 9 1 19.0125577635 16.0992221364 24.7588731422
146 9 1 16.9181511812 11.2283359717 26.2503703649
147 9 2 18.7201083887 16.5411254055 24.9218934341
148 9 2 17.993612248 17.2489431975 25.131406207
149 9 2 17.0872041222 17.7429329444 25.2156481833
150 9 2 16.0777863468 17.9726983532 25.1843131766
151 9 2 15.0516498805 17.911925368 25.0576290502
152 9 2 14.0966094761 17.5607805152 24.8645140858
153 9 2 13.2939999679 16.9458957263 24.6399412806
154 9 2 12.7112631589 16.1179410198 24.4217507983
155 9 2 12.3958009633 15.1470062763 24.2472010975
156 9 2 12.3706550464 14.1162130265 24.1495730789
157 9 2 12.6324067354 13.1141384934 24.1551367593
158 9 2 13.1514886077 12.2267423861 24.2807569396
159 9 2 13.8748793588 11.5295322614 24.5323560937
160 9 2 14.7309363304 11.0806815275 24.904374576
161 9 2 15.6359252481 10.9157273371 25.3802773445
162 9 2 16.5016520258 11.0443316195 25.9340610169
163 10 1 15.8419683408 10.6635441172 27.8659511987
164 10 1 12.0185429318 7.96413700981 30.7696134272
165 10 2 16.0424506274 11.1202977305 28.1079506641
166 10 2 16.1893932335 12.0262380757 28.587927989
167 10 2 16.0305048592 12.9231334349 29.08091021
168 10 2 15.581203377 13.7238173404 29.5602135927
169 10 2 14.8833758229 14.3498923389 30.0004011348
170 10 2 14.0015606809 14.7388753819 30.3796009747
171 10 2 13.0170656418 14.8498927271 30.681499862
172 10 2 12.0205569652 14.6674052997 30.8968299977
173 10 2 11.1037958713 14.2026249728 31.0242137314
174 10 2 10.3512751351 13.4924926818 31.0702891241
175 10 2 9.83251814871 12.5963115113 31.0491049345
176 10 2 9.59574234149 11.5903416259 30.9808401712
177 10 2 9.66346449142 10.5608496788 30.8899649145
178 10 2 10.0304484754 9.59624619775 30.8030100358
179 10 2 10.664182506 8.77902757181 30.7461490911
180 10 2 11.5078423577 8.17825707093 30.7428127807
181 11 1 30.2775915642 6.17678987696 12.9959632704
182 11 1 28.1992263331 1.07642238175 13.053272145
183 11 2 30.3215050161 6.41873659211 13.4928678361
184 11 2 30.1791330987 6.80381232409 14.4437333307
185 11 2 29.7620430048 7.05895563706 15.3567700302
186 11 2 29.1136691266 7.14627058931 16.1596932421
187 11 2 28.2985257873 7.04315764358 16.7902543635
188 11 2 27.3963272031 6.7443734599 17.2019144144
189 11 2 26.4947220792 6.26250879013 17.3680857463
190 11 2 25.6813050305 5.62684091718 17.2845553245
191 11 2 25.0356329339 4.88066523145 16.9698687172
192 11 2 24.6219738638 4.07734915284 16.4636397941
193 11 2 24.4834494979 3.27546805627 15.8229401936
194 11 2 24.638104872 2.53346652792 15.1170976345
195 11 2 25.0772636988 1.90433154184 14.4213771696
196 11 2 25.7663191516 1.43076306058 13.8101212923
197 11 2 26.6478880399 1.14128222638 13.3499741278
198 11 2 27.6470408932 1.04763185454 13.0938072784
199 12 1 7.94536199859 8.14315242771 26.4713281396
200 12 1 2.73190113916 6.36667065477 26.4952719203
201 12 2 8.01281721375 8.67697892877 26.6049687485
202 12 2 7.97137418643 9.70811861157 26.6928988408
203 12 2 7.70539092803 10.7022329525 26.575903736
204 12 2 7.22615156307 11.5708822215 26.278453993
205 12 2 6.56437704806 12.2370619697 25.8414673737
206 12 2 5.76742516698 12.6422214568 25.3185794695
207 12 2 4.89497419392 12.7516001498 24.7712551852
208 12 2 4.01358362756 12.5573959072 24.2631866339
209 12 2 3.19062774926 12.0794760906 23.8544880379
210 12 2 2.48815491916 11.3635667911 23.5962167294
211 12 2 1.95723229362 10.4770852092 23.5257196245
212 12 2 1.63329140401 9.50299503985 23.6632293082
213 12 2 1.53289881557 8.53224489989 24.0100199727
214 12 2 1.65224619855 7.65547898541 24.548291284
215 12 2 1.96749743137 6.95477547474 25.2427907594
216 12 2 2.43696109968 6.49616566516 26.0440267907
217 13 1 21.9719030345 4.79115148745 13.7579040195
218 13 1 18.1860551287 1.81391500536 16.4299918719
219 13 2 21.9544946835 5.33660548054 13.8556672148
220 13 2 21.6934245054 6.33000059188 13.9887340626
221 13 2 21.1537440498 7.21090209024 14.0625976334
222 13 2 20.3805129525 7.89945717877 14.0891274519
223 13 2 19.440077389 8.33334411716 14.0845071897
224 13 2 18.4140230758 8.47345242091 14.0677596348
225 13 2 17.3917392911 8.30744751391 14.0590128946
226 13 2 16.4622716554 7.85089494047 14.0776658574
227 13 2 15.7062062337 7.14584167266 14.140620116
228 13 2 15.1883246678 6.2569838171 14.2607395043
229 13 2 14.9516997743 5.26577000841 14.4456776462
230 13 2 15.0137697523 4.26297792455 14.6971803807
231 13 2 15.3647488113 3.3404405239 15.0109266406
232 13 2 15.9685190789 2.5826761007 15.3769222882
233 13 2 16.765922497 2.05918502198 15.7804110122
234 13 2 17.6801526736 1.81811524563 16.2032192644
235 14 1 32.5221218039 23.5928454397 28.0032094273
236 14 1 29.7837707142 18.8168460482 28.1702365164
237 14 2 32.2561019225 24.0247232724 28.2270301413
238 14 2 31.5819832913 24.758938232 28.5084386258
239 14 2 30.7253740799 25.3333948515 28.602876555
240 14 2 29.7559501173 25.6876696609 28.5168253427
241 14 2 28.7536695234 25.781407253 28.2732167509
242 14 2 27.8014850749 25.5979984014 27.9093428162
243 14 2 26.9777836284 25.1460938781 27.4734569368
244 14 2 26.3492416955 24.4588159945 27.020375906
245 14 2 25.9647483365 23.5907397303 26.606483737
246 14 2 25.8509492571 22.6129185979 26.2845926473
247 14 2 26.0098182356 21.606408602 26.0991295865
248 14 2 26.4184772259 20.6548805406 26.0820870249
249 14 2 27.0312815354 19.8369939851 26.2501070588
250 14 2 27.7839800249 19.2192280002 26.602964598
251 14 2 28.5995711599 18.8498220325 27.1235878808
252 14 2 29.3953211727 18.7543792158 27.7796144481
253 15 1 11.5532302126 10.3554237308 19.9274291893
254 15 1 10.3003377977 12.2409210449 14.9062943174
255 15 2 11.8975576787 10.6764155195 20.2203175968
256 15 2 12.670709824 11.2694118496 20.571443477
257 15 2 13.544964759 11.8209053171 20.6364937272
258 15 2 14.4345456896 12.2980716593 20.4048553865
259 15 2 15.2522789623 12.6748610215 19.8929566246
260 15 2 15.9175393449 12.9343722225 19.1427694274
261 15 2 16.3635984641 13.0703931813 18.2179841377
262 15 2 16.5437066386 13.0879671059 17.1982045175
263 15 2 16.4353537923 13.0029328396 16.1716924107
264 15 2 16.0423210937 12.8404812584 15.2273232813
265 15 2 15.3943363277 12.632859296 14.4464858238
266 15 2 14.5443644124 12.4164308567 13.8956639424
267 15 2 13.5637800098 12.2283624947 13.6203771983
268 15 2 12.5358622142 12.1032359375 13.6410320139
269 15 2 11.5482042347 12.0698961989 13.9510617678
270 15 2 10.6847298737 12.1488225533 14.5175252967
271 16 1 28.3290766673 24.9187050082 28.3610227413
272 16 1 32.0889571614 22.3906992534 31.4929742896
273 16 2 27.8534899368 24.6416755936 28.2942940607
274 16 2 27.1078915986 23.9461085803 28.1127233603
275 16 2 26.6051006045 23.0693168199 27.8865913276
276 16 2 26.3884583283 22.0836292085 27.6538160539
277 16 2 26.4752256498 21.0712997527 27.4529211166
278 16 2 26.8550097443 20.1170106803 27.3195244188
279 16 2 27.4907113172 19.3001542363 27.283091862
280 16 2 28.3219059503 18.6875966237 27.364251731
281 16 2 29.2703513732 18.3275836079 27.5729145672
282 16 2 30.2471187102 18.2453432456 27.9073698907
283 16 2 31.1606977369 18.4407865207 28.3544420988
284 16 2 31.9253374104 18.8885154573 28.890691332
285 16 2 32.4688614887 19.5401379711 29.4845498563
286 16 2 32.7392469003 20.3286784763 30.0991992457
287 16 2 32.7093652904 21.1746822509 30.6959261296
288 16 2 32.3794555846 21.9934571897 31.2376506506
289 17 1 33.3688136393 9.51036197023 9.68568971856
290 17 1 30.9127911486 5.89986530069 13.0426082835
291 17 2 33.3736569766 10.0344222152 9.86657131905
292 17 2 33.152724072 10.9760528847 10.2370016162
293 17 2 32.6541058121 11.7916593665 10.6355792983
294 17 2 31.9262343205 12.4044938764 11.0446455843
295 17 2 31.038436581 12.7562899048 11.4455857285
296 17 2 30.0746157585 12.8125728103 11.8205256274
297 17 2 29.1256040008 12.5658019464 12.1539609217
298 17 2 28.2808837107 12.0360579401 12.4341701122
299 17 2 27.6204318391 11.2692124801 12.654282894
300 17 2 27.2074305336 10.332747427 12.8129063381
301 17 2 27.0825085195 9.30960430435 12.9142518469
302 17 2 27.2600380696 8.29062474766 12.9677513138
303 17 2 27.7268250704 7.36627091176 12.987197471
304 17 2 28.4433115749 6.61838046588 12.9894867764
305 17 2 29.3471812383 6.11270765106 12.9930794173
306 17 2 30.3590390255 5.89293023196 13.0163167909
307 18 1 21.6507095677 24.7072135435 -0.602672527764
308 18 1 20.9568462441 20.6900098496 3.10100984206
309 18 2 21.5492780711 25.2194085197 -0.416262470332
310 18 2 21.1592085584 26.07983825 0.00824280126887
311 18 2 20.5465698411 26.7455784558 0.512387672742
312 18 2 19.7742867759 27.1550781092 1.06789390329
313 18 2 18.9198347075 27.2701407517 1.64180201638
314 18 2 18.068178122 27.0794058399 2.19947533003
315 18 2 17.3040267161 26.5993841805 2.70775685295
316 18 2 16.7041146895 25.8729530843 3.13799131692
317 18 2 16.3302069487 24.9654483926 3.46863690804
318 18 2 16.2234696586 23.9587095635 3.6872286554
319 18 2 16.4007182297 22.9436205665 3.79151452768
320 18 2 16.8528847081 22.0118264313 3.78966069038
321 18 2 17.5458442574 21.2473804326 3.69950721582
322 18 2 18.423525404 20.7190832092 3.54694208288
323 18 2 19.4130205669 20.4742120585 3.36354166519
324 18 2 20.4312310843 20.5342119345 3.18369276118
325 19 1 27.8038821594 21.7268277687 20.8485011209
326 19 1 22.9912730987 21.264471696 23.486996112
327 19 2 27.7673346068 21.7611149147 20.2963513046
328 19 2 27.5624248534 21.6351758264 19.2889538607
329 19 2 27.1838569019 21.2823559712 18.3917901482
330 19 2 26.6506063882 20.7456520134 17.684477613
331 19 2 25.9957472036 20.0848203924 17.2293300676
332 19 2 25.2634370357 19.3709309331 17.0656782146
333 19 2 24.5048926985 18.6798893184 17.2062849229
334 19 2 23.7737220705 18.0855188071 17.6361819792
335 19 2 23.1210381042 17.6528317496 18.3140343389
336 19 2 22.5908002312 17.4321041579 19.1759075311
337 19 2 22.2158077612 17.454293392 20.1410948478
338 19 2 22.0147104495 17.7282166087 21.119473207
339 19 2 21.9903087003 18.2397471382 22.0197172534
340 19 2 22.1292983285 18.9531020332 22.7576230388
341 19 2 22.4034831454 19.8141034391 23.2637826344
342 19 2 22.7723448476 20.7551165344 23.4899101878
343 20 1 22.0785569259 2.36716667963 30.1832932498
344 20 1 17.6428793442 0.391055769557 32.7825979625
345 20 2 22.2091990182 2.8917781029 30.3061600473
346 20 2 22.2260396023 3.91107960458 30.4890236973
347 20 2 21.9439952088 4.89996881132 30.6125039305
348 20 2 21.3849991334 5.7689379622 30.6840180802
349 20 2 20.5962269189 6.43940918721 30.7157198321
350 20 2 19.6457966276 6.85089634137 30.7233914992
351 20 2 18.6165603474 6.9665179021 30.7250055715
352 20 2 17.5985527915 6.77635846723 30.7390866476
353 20 2 16.6807852523 6.29837247581 30.7830230441
354 20 2 15.9431328314 5.57674778421 30.8714819697
355 20 2 15.4490543726 4.67787824586 31.0150727101
356 20 2 15.2398086231 3.68431236679 31.2193796637
357 20 2 15.3306937811 2.68722957523 31.4844533628
358 20 2 15.7096531707 1.77812984187 31.804805867
359 20 2 16.3383741246 1.04049408488 32.1699109521
360 20 2 17.1557799215 0.542175456531 32.5651635029
361 21 1 9.52105271401 20.0719935437 8.69315062325
362 21 1 14.7340958314 18.2945025914 8.6565132395
363 21 2 9.14043734327 19.6831044555 8.79934840204
364 21 2 8.54285663255 18.8377097968 8.82940562159
365 21 2 8.14764082144 17.8972963789 8.65017019795
366 21 2 7.999619251 16.9371076086 8.29124762802
367 21 2 8.12109120199 16.0341892808 7.79862066012
368 21 2 8.50979346841 15.2603673821 7.23045828175
369 21 2 9.13910663315 14.6757016446 6.65181401521
370 21 2 9.96048124536 14.3230115134 6.12869673501
371 21 2 10.9078627701 14.2239734473 5.7220544116
372 21 2 11.9037120061 14.3771452587 5.48221912164
373 21 2 12.8660722528 14.7580975585 5.44431962436
374 21 2 13.7160391012 15.3216403281 5.62507961598
375 21 2 14.38495203 16.0059416793 6.02129347946
376 21 2 14.8206523414 16.738163407 6.6101184545
377 21 2 14.9922370686 17.4410996925 7.35115659856
378 21 2 14.8928755698 18.0402138844 8.19013678233
379 22 1 21.9901898396 3.83859091801 11.8604498584
380 22 1 17.5818246883 7.10569845934 11.3819522794
381 22 2 22.1588010602 3.74530996155 12.3803052913
382 22 2 22.4620597088 3.80537350257 13.3688015402
383 22 2 22.7117739409 4.16293818431 14.3082101689
384 22 2 22.8685675216 4.78394492106 15.1221294997
385 22 2 22.901533296 5.61032369001 15.7455953441
386 22 2 22.791050165 6.56528621563 16.1310020429
387 22 2 22.5305714135 7.56032469458 16.2524413961
388 22 2 22.127221399 8.50327867514 16.1080640175
389 22 2 21.601146215 9.3067348505 15.7202478933
390 22 2 20.9836775129 9.8959941824 15.1335587825
391 22 2 20.3144768365 10.2158802063 14.4106883533
392 22 2 19.6379207444 10.2357679878 13.6267402673
393 22 2 18.999056191 9.95237537559 12.862384996
394 22 2 18.4394948053 9.39006214677 12.1965072598
395 22 2 17.9936202765 8.59860978043 11.6990162274
396 22 2 17.6854545158 7.64868421701 11.4244737735
397 23 1 6.98070429434 12.893739568 29.6695742359
398 23 1 9.82074487306 11.5724896202 25.1391103508
399 23 2 6.42927750996 12.8707313374 29.6168497214
400 23 2 5.43890418394 12.9582166474 29.3266682838
401 23 2 4.57769327739 13.1946967532 28.8021769063
402 23 2 3.92197400934 13.5432018789 28.0801833537
403 23 2 3.5293464448 13.9565519359 27.21549636
404 23 2 3.43343164385 14.381656665 26.2759301881
405 23 2 3.64080733241 14.7643544489 25.3361238246
406 23 2 4.13040838769 15.054348773 24.4707381477
407 23 2 4.85544677972 15.209792407 23.7476511005
408 23 2 5.74767597942 15.201101494 23.2217710815
409 23 2 6.7236111619 15.0136519153 22.9300324208
410 23 2 7.69213827582 14.6491121794 22.8880290688
411 23 2 8.56281846453 14.1252913481 23.0885933149
412 23 2 9.25413094771 13.4745158632 23.5024490747
413 23 2 9.70090308169 12.7406832128 24.0808802051
414 23 2 9.860250399 11.975260976 24.7601706459
415 24 1 22.1512434768 26.5443420117 18.9312311879
416 24 1 18.6726596475 23.4787179692 21.9041150908
417 24 2 22.1930739646 27.0738842755 19.090026505
418 24 2 22.0362477763 28.0565827528 19.377093606
419 24 2 21.5869564527 28.9505712747 19.644712926
420 24 2 20.8853766051 29.6727581498 19.8874681647
421 24 2 19.9946792139 30.1557102291 20.1022092124
422 24 2 18.9952720272 30.353798975 20.2883392607
423 24 2 17.9774709453 30.2473591894 20.4478691978
424 24 2 17.0332683462 29.8444813624 20.5852343296
425 24 2 16.2479486107 29.1802742788 20.7068901321
426 24 2 15.692315036 28.3136650936 20.8207238788
427 24 2 15.4162366004 27.3220285257 20.9353357702
428 24 2 15.4441027478 26.2941346826 21.0592550839
429 24 2 15.7726004576 25.322058274 21.2001627902
430 24 2 16.3710162031 24.4927866331 21.3641914834
431 24 2 17.1840352793 23.8802914175 21.5553664389
432 24 2 18.1367833592 23.5387866 21.775238736
433 25 1 7.31104517697 25.7838274343 29.4889727823
434 25 1 3.36441099624 22.4395863575 31.380206557
435 25 2 7.13660406078 26.2826941024 29.3213926638
436 25 2 6.65369869107 27.089010211 28.886243255
437 25 2 5.99486005967 27.6712140095 28.3388232464
438 25 2 5.20678353874 27.980207566 27.7420346319
439 25 2 4.34794364804 27.9917941887 27.1632790156
440 25 2 3.48326450331 27.7088837892 26.6683144173
441 25 2 2.67820242823 27.1612276633 26.31526188
442 25 2 1.99278005938 26.4027068646 26.1493081354
443 25 2 1.47611569433 25.5064213161 26.1985871428
444 25 2 1.16194649565 24.5580272532 26.4716158721
445 25 2 1.06555357982 23.6479302449 26.95651804
446 25 2 1.18236924823 22.8630453465 27.6221065517
447 25 2 1.4883933016 22.2788753877 28.4207259912
448 25 2 1.9423804936 21.9526294079 29.2925960854
449 25 2 2.48959975226 21.918008444 30.1712602664
450 25 2 3.06682254194 22.1821339119 30.9896427316
451 26 1 2.97918062553 7.75771572081 9.84256187914
452 26 1 4.33226487733 8.53783546589 15.1243429346
453 26 2 3.03968146606 7.23834169057 9.65824959889
454 26 2 3.36685219272 6.28771105202 9.40933399925
455 26 2 3.94034262497 5.43025634952 9.31671419384
456 26 2 4.70213580768 4.73400646177 9.40392377865
457 26 2 5.57705228102 4.25229755386 9.67810613368
458 26 2 6.47960217283 4.01891185149 10.1293633528
459 26 2 7.3217770143 4.04499862268 10.7316583701
460 26 2 8.02107110853 4.31805799847 11.4451880598
461 26 2 8.50800135912 4.80308025027 12.2200110186
462 26 2 8.73244017802 5.44573668656 13.0005993816
463 26 2 8.66818427152 6.17733134068 13.7308998072
464 26 2 8.31534289082 6.92106213718 14.3594423543
465 26 2 7.7003278745 7.59902087442 14.8440316148
466 26 2 6.87344639054 8.13929402305 15.1555925357
467 26 2 5.90431578287 8.48251715113 15.2808204109
468 26 2 4.87551842778 8.58728558506 15.2233935139
469 27 1 20.5178040837 11.1152904364 20.1104165362
470 27 1 23.3786063876 11.981986555 24.7365686027
471 27 2 20.264281901 11.5626299816 19.9030651778
472 27 2 19.7106240128 12.4217825847 19.7356793408
473 27 2 19.1086011789 13.2538672448 19.8694773117
474 27 2 18.5260100749 13.9966569336 20.2955634002
475 27 2 18.0288763072 14.5960632471 20.978401858
476 27 2 17.6754366319 15.0110661931 21.8590557184
477 27 2 17.5108310739 15.2174528818 22.8605584973
478 27 2 17.5629887229 15.2100243652 23.89492916
479 27 2 17.8400821883 15.0030694852 24.8711909897
480 27 2 18.3297827223 14.6290625437 25.7036634912
481 27 2 19.0003839003 14.1357034928 26.3197715809
482 27 2 19.8036914441 13.5815704111 26.6666603077
483 27 2 20.6794158005 13.0307805132 26.7160122198
484 27 2 21.5606671199 12.5471463057 26.4666283061
485 27 2 22.3800518082 12.1883595143 25.9445372777
486 27 2 23.0758149906 12.0007328788 25.2006232297
487 28 1 19.6081409941 12.1796622748 18.0177556269
488 28 1 16.4063312469 8.1802640919 20.0400967069
489 28 2 19.3377506848 12.6273370496 17.833752561
490 28 2 18.7043026707 13.3049439276 17.3730022996
491 28 2 17.9437131702 13.7239728267 16.8085409062
492 28 2 17.1113909578 13.8478917128 16.2047345503
493 28 2 16.2692827526 13.6670658067 15.6295354251
494 28 2 15.4802272002 13.1996357274 15.1482883709
495 28 2 14.8022275603 12.4898640992 14.8177751408
496 28 2 14.2831651079 11.6041013173 14.6810391331
497 28 2 13.9564350828 10.6247381638 14.7634622813
498 28 2 13.8379029428 9.64269645301 15.070451664
499 28 2 13.9244583359 8.74914213125 15.5869466872
500 28 2 14.1942985876 8.02717612613 16.2787917545
501 28 2 14.6089158651 7.54426026659 17.0958493149
502 28 2 15.1166069022 7.34606859974 17.9765695571
503 28 2 15.657185398 7.45232451464 18.853600253
504 28 2 16.1674675848 7.85500309059 19.6599254513
505 29 1 19.3991715148 13.6507873713 22.8199267987
506 29 1 18.7996501468 13.6247248832 17.3448441689
507 29 2 19.9221233109 13.6922519963 22.9993226052
508 29 2 20.9365189164 13.5932553779 23.1834407633
509 29 2 21.924278668 13.2839530837 23.1465485557
510 29 2 22.8027820292 12.804803345 22.8794425031
511 29 2 23.4993664343 12.211744823 22.3939015397
512 29 2 23.9579499833 11.5710981835 21.7216134445
513 29 2 24.1441429224 10.9535214232 20.9112867168
514 29 2 24.0483820344 10.4275698772 20.0242111311
515 29 2 23.6868022603 10.0534478706 19.1286715942
516 29 2 23.0997661101 9.87752150693 18.2937244438
517 29 2 22.3481848967 9.92809271584 17.582903437
518 29 2 21.5079670875 10.212819726 17.0484290841
519 29 2 20.6630997678 10.7180190702 16.7264491069
520 29 2 19.8979937938 11.4099127396 16.6337438216
521 29 2 19.2897903221 12.2377068176 16.7661967284
522 29 2 18.9013299219 13.1382209971 17.0991697018
523 30 1 12.4939826599 26.3672119747 30.8915684389
524 30 1 15.2586132377 21.8924906497 29.2574565213
525 30 2 11.9505711221 26.3613704105 30.7817935402
526 30 2 11.0070563431 26.2930367602 30.3601199163
527 30 2 10.2283697771 26.1404133737 29.694498699
528 30 2 9.68108995811 25.8991671478 28.8489318304
529 30 2 9.4107042819 25.5730423435 27.9038220647
530 30 2 9.4374631414 25.1735193222 26.9486448089
531 30 2 9.75453424241 24.7187681896 26.0737930527
532 30 2 10.3286253203 24.2319927152 25.362338667
533 30 2 11.1030185017 23.7393154675 24.882460973
534 30 2 12.0027397499 23.2673969212 24.6812326639
535 30 2 12.941392234 22.8410055379 24.780329452
536 30 2 13.829030808 22.4807602903 25.1740544761
537 30 2 14.580359894 22.2012513842 25.8298575312
538 30 2 15.1225075893 22.0097104615 26.6913017967
539 30 2 15.4016674409 21.9053514858 27.6832076655
540 30 2 15.3880025347 21.8794423835 28.7185048498
541 31 1 12.1678949136 30.5408767982 3.61403827646
542 31 1 9.70669954857 26.4030552238 6.2894045916
543 31 2 12.1376445485 31.0344138928 3.86481068987
544 31 2 11.8517673661 31.905718963 4.34626679622
545 31 2 11.293437534 32.6373371507 4.82134668121
546 31 2 10.5156093081 33.1577203625 5.26506149371
547 31 2 9.59124271783 33.4145731249 5.65528109393
548 31 2 8.60665376015 33.379618958 5.9747510639
549 31 2 7.65364728775 33.0511775828 6.21266532939
550 31 2 6.82114962635 32.4543180673 6.36565105946
551 31 2 6.18710354978 31.6385739526 6.43807607692
552 31 2 5.81136433051 30.6734286102 6.44165076118
553 31 2 5.73024434195 29.6419823095 6.39436072748
554 31 2 5.95320343456 28.6333781974 6.31882756138
555 31 2 6.46198673535 27.7346775121 6.2402470163
556 31 2 7.21228845443 27.0229245478 6.18409259339
557 31 2 8.1377900539 26.5581245957 6.1737938065
558 31 2 9.15620472801 26.3777748732 6.22860074264
559 32 1 15.6111155142 33.9350835537 18.8054013756
560 32 1 19.4392258376 30.506085472 20.7863552958
561 32 2 15.0920564075 33.8277204056 18.9679792027
562 32 2 14.1742064953 33.4086214984 19.2016582898
563 32 2 13.3993879923 32.7356450377 19.3411475073
564 32 2 12.8408820269 31.8649000327 19.3918672669
565 32 2 12.5522543229 30.8705207395 19.3673287075
566 32 2 12.5624730506 29.8379098321 19.2879022479
567 32 2 12.8732685773 28.8559545337 19.1789609627
568 32 2 13.4589757556 28.0089251562 19.0685680004
569 32 2 14.268873126 27.368794439 18.98491882
570 32 2 15.23180583 26.988677727 18.9537713681
571 32 2 16.2626708878 26.8979918711 18.9960984188
572 32 2 17.2701737512 27.0997740843 19.1261760488
573 32 2 18.1651491758 27.57040512 19.3502824714
574 32 2 18.8686880218 28.261762005 19.66612582
575 32 2 19.3193292811 29.1056041179 20.0630530361
576 32 2 19.4786618266 30.0197928547 20.5230208227
577 33 1 13.015850243 22.2795599206 8.13538822872
578 33 1 13.2251715512 16.8666718182 9.13211382174
579 33 2 13.5060984316 22.5384679885 8.13740753766
580 33 2 14.4492122383 22.9116581247 8.34708286036
581 33 2 15.3614194899 23.1008588101 8.79960833137
582 33 2 16.1707875061 23.0758857001 9.44536217704
583 33 2 16.8147566979 22.8260749234 10.2171111822
584 33 2 17.2458424451 22.3612550202 11.0361385366
585 33 2 17.435962994 21.7108511389 11.8194183327
586 33 2 17.3789989165 20.9212031346 12.4871828079
587 33 2 17.0913508544 20.0513420099 12.9701926289
588 33 2 16.6104447128 19.1676096433 13.2160475826
589 33 2 15.9913205459 18.3376121818 13.1939624961
590 33 2 15.3016160333 17.6240582044 12.8975730939
591 33 2 14.6154017693 17.0790432646 12.3455160586
592 33 2 14.0064302356 16.7393017384 11.5797304243
593 33 2 13.541413769 16.6228587374 10.6616351219
594 33 2 13.2739441887 16.7273872435 9.66653106393