LAMMPS input file for bananas

648 atoms

2 atom types

0 67.4746132241 xlo xhi
0 67.4746132241 ylo yhi
0 67.4746132241 zlo zhi

Masses

 1 1
 2 1

Atoms

1 1 1 38.7517880386 8.15068283817 62.6238369186
2 1 1 34.3557485752 8.00019686837 65.9387767275
3 1 2 38.9314614053 8.65885020045 62.4939748193
4 1 2 39.0411304965 9.64511505339 62.1974067809
5 1 2 38.84716466 10.6079082645 61.8686139009
6 1 2 38.3647780673 11.4687457077 61.5540342723
7 1 2 37.6354724645 12.158435826 61.2988105478
8 1 2 36.7232545725 12.6233859678 61.1426754963
9 1 2 35.7088023133 12.8304869893 61.1163306335
10 1 2 34.6821115706 12.7701309265 61.2386479894
11 1 2 33.7342936818 12.4570866947 61.5149500519
12 1 2 32.9492712647 11.9291540034 61.9365246586
13 1 2 32.3961292456 11.2437181718 62.4814190508
14 1 2 32.1228182428 10.4725198506 63.1164407167
15 1 2 32.1517841956 9.69511635339 63.8001826616
16 1 2 32.4779225714 8.99163055305 64.4867973713
17 1 2 33.0690436089 8.4354482311 65.1301754988
18 1 2 33.8688061935 8.08652946697 65.6881484151
19 2 1 58.8500612667 50.0475485462 43.6856777768
20 2 1 57.5572213312 44.7840428858 44.6658349027
21 2 2 58.7786886938 50.2138701205 43.1616321286
22 2 2 58.7694634372 50.331085417 42.1326162201
23 2 2 58.908223699 50.1805415643 41.1173426563
24 2 2 59.166276247 49.7668464931 40.2035792615
25 2 2 59.504055175 49.1185925637 39.469841904
26 2 2 59.8747280639 48.285750568 38.9782383129
27 2 2 60.2284644356 47.3351152348 38.7688073847
28 2 2 60.5169774595 46.3442173479 38.8558699125
29 2 2 60.6979249658 45.3942573466 39.2267233432
30 2 2 60.7387686442 44.562704463 39.8427995291
31 2 2 60.6197396879 43.9162359321 40.6431799494
32 2 2 60.3356405844 43.5046598188 41.5501480158
33 2 2 59.8963188336 43.3563753551 42.4762724071
34 2 2 59.3257694154 43.4757845439 43.3323758343
35 2 2 58.6599478119 43.8428909472 44.0356629393
36 2 2 57.9434929115 44.415122224 44.5172665238
37 3 1 12.9614697434 21.284719397 29.4555657566
38 3 1 13.1471679189 24.3569496263 24.8879019628
39 3 2 13.4550028734 21.155270502 29.672473075
40 3 2 14.4261446965 20.8465272477 29.8575661152
41 3 2 15.3912696757 20.4894789876 29.7403117529
42 3 2 16.2721746957 20.1328016881 29.3286250749
43 3 2 16.9983327128 19.8251375048 28.6572566547
44 3 2 17.5133208117 19.610661384 27.7846252762
45 3 2 17.7799627673 19.5250548191 26.7874934621
46 3 2 17.783717403 19.5922537268 25.7539710963
47 3 2 17.5340039188 19.8222668526 24.7754848119
48 3 2 17.0633433961 20.2102635426 23.9384450805
49 3 2 16.424394724 20.737014024 23.3163704902
50 3 2 15.6851551027 21.370642067 22.9631870302
51 3 2 14.9227625646 22.0695302852 22.908313107
52 3 2 14.216465372 22.7861132745 23.1539782579
53 3 2 13.6403990809 23.4712128736 23.6750199439
54 3 2 13.2568295935 24.0785204166 24.4211769432
55 4 1 5.38635668037 48.653702265 17.8629214365
56 4 1 6.33972537188 49.2301181933 12.468899955
57 4 2 5.48953302996 49.1038535974 18.1696773174
58 4 2 5.88813279279 49.9422766402 18.62887586
59 4 2 6.51626080722 50.7219143429 18.8940522563
60 4 2 7.31054756316 51.3856500335 18.9295734243
61 4 2 8.19247932046 51.8869307141 18.7207377811
62 4 2 9.07555409798 52.1940100467 18.2751151921
63 4 2 9.87316573613 52.2928418152 17.6218570292
64 4 2 10.5064974545 52.1883601407 16.8090392235
65 4 2 10.9117054612 51.9040297711 15.8992804734
66 4 2 11.0457378764 51.4797074296 14.9640349799
67 4 2 10.8902586163 50.9680091479 14.0770798856
68 4 2 10.4533186014 50.4295146754 13.3077909947
69 4 2 9.76862197035 49.9272460509 12.7148196435
70 4 2 8.89245417861 49.5209235753 12.3407470334
71 4 2 7.89855196524 49.261522716 12.2082032463
72 4 2 6.8713827546 49.1866280421 12.317804668
73 5 1 36.5164557629 66.2041494284 12.5675407246
74 5 1 38.8235206997 62.8436423372 16.2717381267
75 5 2 36.1229264393 65.9729488605 12.2528000051
76 5 2 35.5504397637 65.3745220329 11.6308332782
77 5 2 35.2271793965 64.5989000755 11.0253486911
78 5 2 35.173765315 63.7055074027 10.5041052363
79 5 2 35.3862228579 62.7645024222 10.1271839046
80 5 2 35.8363449882 61.8503830773 9.94151171465
81 5 2 36.474263171 61.0351968696 9.97658463726
82 5 2 37.232992549 60.3819742238 10.2417792396
83 5 2 38.0345371526 59.9389836963 10.7254980753
84 5 2 38.796998698 59.7353326273 11.3962267127
85 5 2 39.4420410541 59.7783142062 12.2054060586
86 5 2 39.902030044 60.0527427476 13.091858187
87 5 2 40.1261978363 60.5223377623 13.9873622876
88 5 2 40.085270085 61.133030675 14.8228725248
89 5 2 39.7741340854 61.8178928045 15.5348110926
90 5 2 39.2123047618 62.5032354541 16.0708628952
91 6 1 19.804839084 41.255331599 13.1876389535
92 6 1 14.5586168597 40.1898378824 11.8920655516
93 6 2 19.8929426901 41.3951274969 13.7168606587
94 6 2 19.8821012529 41.8081271144 14.6666038083
95 6 2 19.6346595415 42.3749248642 15.4973933011
96 6 2 19.1610696359 43.0322798036 16.1426028453
97 6 2 18.4923954733 43.7086973231 16.552520489
98 6 2 17.6774815835 44.3309453897 16.6988795239
99 6 2 16.778501245 44.8307291444 16.5774348018
100 6 2 15.8652898164 45.1509155109 16.208349651
101 6 2 15.0089797229 45.2507404834 15.6343581269
102 6 2 14.2755172229 45.1095244862 14.9168700961
103 6 2 13.7196518591 44.7285571757 14.1303741479
104 6 2 13.3799464125 44.1309798963 13.3556484701
105 6 2 13.2752621702 43.3596765064 12.672398471
106 6 2 13.4030398475 42.473364808 12.1519921782
107 6 2 13.7395328495 41.5412448221 11.8509555317
108 6 2 14.2419716105 40.6366916809 11.8058204323
109 7 1 64.5007760093 31.6571533337 57.1877849546
110 7 1 60.156051701 34.9174271063 56.2764010953
111 7 2 64.9393731457 31.9077541121 57.4162856185
112 7 2 65.7259047496 32.5319400289 57.6701719091
113 7 2 66.3997400065 33.318230697 57.6899532858
114 7 2 66.8910978411 34.2068899727 57.4861140323
115 7 2 67.146828744 35.1288515153 57.0895199195
116 7 2 67.135258985 36.0120137111 56.5486050023
117 7 2 66.8490774569 36.7878112406 55.9249571872
118 7 2 66.3060020322 37.3974643377 55.2877049174
119 7 2 65.547164701 37.7973361621 54.7072165886
120 7 2 64.6333626716 37.9629099983 54.2486869528
121 7 2 63.6395171224 37.891023786 53.9661950629
122 7 2 62.6478446496 37.6001583202 53.8977753385
123 7 2 61.7403637886 37.1287528538 54.0619509889
124 7 2 60.9914195864 36.5317016225 54.4560457496
125 7 2 60.4609075607 35.8753506125 55.0564278058
126 7 2 60.1888146338 35.2314505779 55.8206636697
127 8 1 16.5798878412 17.71576644 63.8765790872
128 8 1 13.3832944887 16.6324318744 59.5240152353
129 8 2 16.34399023 17.6257592126 64.3701697756
130 8 2 15.7286856124 17.5871517467 65.2024004902
131 8 2 14.9280609441 17.7061043257 65.84858057
132 8 2 14.0050265209 17.9559455567 66.24643115
133 8 2 13.0336494488 18.2980744432 66.3563068967
134 8 2 12.0924029344 18.6854786019 66.1648094082
135 8 2 11.2570139909 19.0670191185 65.6860083866
136 8 2 10.5935614395 19.3920915099 64.9601592814
137 8 2 10.1524532782 19.6152379752 64.0500342811
138 8 2 9.96383233813 19.7002905628 63.0352010586
139 8 2 10.0348289714 19.6236676316 62.0047707235
140 8 2 10.3489111681 19.3765231551 61.049275955
141 8 2 10.8673913361 18.965552977 60.2524195695
142 8 2 11.5329524094 18.4123845301 59.6834455822
143 8 2 12.2748719058 17.7516056448 59.3908280901
144 8 2 13.0154677965 17.0276121049 59.3978531905
145 9 1 14.3551695415 7.30755863804 35.8434385639
146 9 1 12.3879814824 3.32293291293 39.0975995767
147 9 2 14.2596734396 7.82436001105 36.0200103255
148 9 2 13.8598498205 8.71310442879 36.3706849676
149 9 2 13.2072621046 9.42957619898 36.7360556653
150 9 2 12.3637604499 9.90659995769 37.1016395313
151 9 2 11.4085955106 10.0988243855 37.4529342498
152 9 2 10.431195284 9.98685566948 37.7767398625
153 9 2 9.52301436131 9.57902511607 38.0623618546
154 9 2 8.76919846868 8.9106298098 38.3025858869
155 9 2 8.24082401821 8.04071552593 38.4943353325
156 9 2 7.98841998017 7.04669511292 38.6389516911
157 9 2 8.0373625138 6.01729284199 38.74207232
158 9 2 8.38556210441 5.04445779815 38.8131166277
159 9 2 9.00365400832 4.21498335148 38.8644275596
160 9 2 9.83767464788 3.60259653652 38.9101466229
161 9 2 10.8139800216 3.26123833857 38.9649249853
162 9 2 11.8459578501 3.22014734267 39.0425881215
163 10 1 8.87681927568 52.7694990241 39.0298789182
164 10 1 6.09812995566 49.5819814728 42.5590788913
165 10 2 8.81577660458 53.3151033686 39.1071475615
166 10 2 8.47251987175 54.2814198575 39.2524249849
167 10 2 7.85965661373 55.1025997842 39.4032905744
168 10 2 7.03280450065 55.7049775663 39.5650152225
169 10 2 6.06708481963 56.0348299368 39.7418800931
170 10 2 5.05027568453 56.0632724515 39.9367864224
171 10 2 4.07481166267 55.7888921082 40.1509910916
172 10 2 3.22935899776 55.2378761316 40.3839920704
173 10 2 2.59073428971 54.4616251883 40.6335741736
174 10 2 2.21690318819 53.5320685673 40.8960109606
175 10 2 2.14169722108 52.5351083196 41.166404374
176 10 2 2.37173028267 51.5627898742 41.4391311649
177 10 2 2.88579582253 50.7049127291 41.7083554127
178 10 2 3.63679967721 50.040845842 41.9685604298
179 10 2 4.55605238031 49.6322936949 42.2150515695
180 10 2 5.55952973646 49.5176723526 42.4443841112
181 11 1 31.7561240797 18.5116996097 49.2933254793
182 11 1 30.3332094258 14.7663357903 53.0727697076
183 11 2 31.3568769775 18.8710324686 49.1559850282
184 11 2 30.4822235763 19.3473963651 48.8718070258
185 11 2 29.5038465152 19.5356225093 48.5888803287
186 11 2 28.502564017 19.4216358783 48.3498433483
187 11 2 27.5612819786 19.0189060719 48.1933342489
188 11 2 26.7574376659 18.3672196503 48.1504693445
189 11 2 26.1559418386 17.5290538627 48.2420070599
190 11 2 25.8032625793 16.5838822737 48.4764559425
191 11 2 25.7231900463 15.6209312933 48.8492991665
192 11 2 25.9146681636 14.7310478008 49.3434062111
193 11 2 26.3518908757 13.9984190752 49.9305941892
194 11 2 26.9866541916 13.4928997016 50.5741965251
195 11 2 27.752749649 13.2636448048 51.2324048611
196 11 2 28.5719987611 13.3346298964 51.8620796026
197 11 2 29.3613784501 13.7024656719 52.4226817966
198 11 2 30.0405880312 14.3367069218 52.8799679794
199 12 1 6.22022243419 10.4786240658 40.9961650936
200 12 1 5.85255394991 7.01883188712 45.2659769036
201 12 2 6.04296563501 10.9945215323 41.0952134798
202 12 2 5.52160787532 11.848106917 41.3640560891
203 12 2 4.80086005674 12.4928406673 41.7349189267
204 12 2 3.9525735183 12.872780677 42.1918147669
205 12 2 3.06022387889 12.9561189737 42.7109150659
206 12 2 2.211302807 12.7380807976 43.2627217699
207 12 2 1.48934375491 12.2413597883 43.8147558605
208 12 2 0.966308457265 11.5140496148 44.3345175944
209 12 2 0.696028112341 10.6252605676 44.7924486327
210 12 2 0.709297037385 9.65882062933 45.1646260801
211 12 2 1.01106597773 8.70563512898 45.4349428936
212 12 2 1.57999088031 7.8554013444 45.5965759282
213 12 2 2.37037825772 7.18843321042 45.6526078205
214 12 2 3.31634983639 6.76834125427 45.6157460271
215 12 2 4.33784690948 6.63623493221 45.507164627
216 12 2 5.34792713914 6.80697578439 45.3545744499
217 13 1 64.2784940235 49.2945795771 29.7277947558
218 13 1 60.5560461654 46.3506980703 32.5230726569
219 13 2 64.0723835567 49.7183185145 29.4356568772
220 13 2 63.5383665821 50.3467583214 28.8090888036
221 13 2 62.8427799882 50.7188867751 28.1379867432
222 13 2 62.0354697544 50.8072939926 27.4952328079
223 13 2 61.1764647038 50.6104293368 26.9511253723
224 13 2 60.3305052877 50.1527427458 26.566971859
225 13 2 59.5611429371 49.4824562889 26.3895009872
226 13 2 58.9249477858 48.6671690556 26.4466037704
227 13 2 58.4663526904 47.787695962 26.7447914415
228 13 2 58.2136034799 46.9307020254 27.2686019991
229 13 2 58.1761845423 46.1808034418 27.9820094623
230 13 2 58.3439543875 45.6128554004 28.8317073923
231 13 2 58.6880699748 45.2851295456 29.7519674088
232 13 2 59.1636155578 45.2340029167 30.6706298807
233 13 2 59.7136964475 45.4706424298 31.5156807825
234 13 2 60.2746245725 45.9799870904 32.2218152786
235 14 1 30.5508559497 16.596150849 61.6817025099
236 14 1 30.504455885 11.1507313821 62.5074680883
237 14 2 30.0666871 16.8516941873 61.7692175305
238 14 2 29.078186987 17.1599610311 61.7923983596
239 14 2 28.0546082092 17.2164727395 61.6447799886
240 14 2 27.0826369977 17.0066810436 61.3550254727
241 14 2 26.244255908 16.5403094039 60.9647526025
242 14 2 25.6092716717 15.8504667839 60.5247407273
243 14 2 25.228952792 14.9906299944 60.0903025658
244 14 2 25.1313567705 14.0297696496 59.7162428306
245 14 2 25.318772859 13.0460639679 59.4518631551
246 14 2 25.7675134094 12.1197733639 59.3364685871
247 14 2 26.4300728404 11.3259252609 59.3957852031
248 14 2 27.239457446 10.7274758569 59.6396153533
249 14 2 28.115291412 10.3695720978 60.0609442442
250 14 2 28.9711425206 10.2754368433 60.636579289
251 14 2 29.7223998546 10.4442522622 61.329263953
252 14 2 30.2939855019 10.8512343724 62.091073431
253 15 1 11.3226124444 54.343609287 58.6570705543
254 15 1 7.0121004333 55.8610497324 61.7317242948
255 15 2 11.7186419309 54.727537417 58.6010296012
256 15 2 12.2779690532 55.5838060036 58.4377643293
257 15 2 12.5588150343 56.5580470118 58.2263919946
258 15 2 12.5358739112 57.5692463199 58.0035738283
259 15 2 12.2115278324 58.5330213105 57.8070142705
260 15 2 11.6156299418 59.3693117676 57.6720244693
261 15 2 10.8027834691 60.0096768164 57.6283039117
262 15 2 9.84736501977 60.4035328397 57.6972335186
263 15 2 8.83674565764 60.5227638281 57.8899269212
264 15 2 7.86332763112 60.364283961 58.2062175288
265 15 2 7.01612254201 59.9503188584 58.6346737131
266 15 2 6.37263854815 59.3263798679 59.1536407226
267 15 2 5.99181602632 58.5571160173 59.7332143643
268 15 2 5.90865556095 57.7204216991 60.3379665665
269 15 2 6.1310278808 56.9003371307 60.9301744042
270 15 2 6.63895649605 56.1793886645 61.4732582853
271 16 1 21.9094606923 14.9021392465 58.7197812671
272 16 1 17.0047330571 15.820233069 61.0516014756
273 16 2 22.3089191554 15.2587498693 58.8634564271
274 16 2 22.8938237998 16.0867102478 59.0757450035
275 16 2 23.2196164095 17.0600924273 59.2138919517
276 16 2 23.252845506 18.0929081045 59.2837909862
277 16 2 22.9867247688 19.0937520207 59.2975561509
278 16 2 22.4417515627 19.9741329237 59.2724177071
279 16 2 21.6638387431 20.6565389392 59.2291517133
280 16 2 20.7201300141 21.0815022465 59.1901864299
281 16 2 19.6928802402 21.2130191626 59.1775581369
282 16 2 18.6719584793 21.0418316314 59.2109026785
283 16 2 17.7466570345 20.5862710315 59.3056657898
284 16 2 16.9975530726 19.8905873974 59.4716953248
285 16 2 16.4891645678 19.0209163314 59.7123436913
286 16 2 16.2640699308 18.0592511977 60.0241623022
287 16 2 16.3390272785 17.0959699889 60.3972158907
288 16 2 16.7034470466 16.2215979919 60.8159880417
289 17 1 61.2344978386 15.2626243673 40.4255619261
290 17 1 56.3887773054 17.5879825757 41.6290305149
291 17 2 61.6536218465 15.6175534026 40.3497912355
292 17 2 62.2848310962 16.3871591405 40.0634694542
293 17 2 62.6657321861 17.2440956328 39.6238417949
294 17 2 62.7580005022 18.1233665516 39.084335094
295 17 2 62.5496183286 18.957939939 38.5074794779
296 17 2 62.0559701805 19.6848577107 37.9592091704
297 17 2 61.3184406106 20.2509738536 37.5028530404
298 17 2 60.4006422914 20.6177983207 37.1933626098
299 17 2 59.3826181557 20.7650051348 37.072303599
300 17 2 58.3535460325 20.6922849621 37.1640674961
301 17 2 57.403610699 20.4193733058 37.4736484405
302 17 2 56.6157841567 19.9842517502 37.9861880412
303 17 2 56.0582633022 19.4396861999 38.6683296169
304 17 2 55.7782542475 18.8484176293 39.4712584293
305 17 2 55.7976698068 18.2774436728 40.3351508115
306 17 2 56.1111322938 17.7919122498 41.1946266853
307 18 1 24.4767362 62.6966432398 11.3029749827
308 18 1 25.3552208349 60.4925578971 6.33237064561
309 18 2 24.0452581446 63.043420666 11.3338433473
310 18 2 23.3392364034 63.7897754607 11.2027476096
311 18 2 22.8087631549 64.5965872587 10.8281129525
312 18 2 22.4894992113 65.381674761 10.2327925184
313 18 2 22.3978551049 66.0648366889 9.45975344492
314 18 2 22.5294953803 66.5751615814 8.56816070544
315 18 2 22.8597337416 66.857490888 7.62798462703
316 18 2 23.345783039 66.8774462929 6.71362357504
317 18 2 23.9306550241 66.6245630625 5.89712305218
318 18 2 24.5483544382 66.113243834 5.24160924485
319 18 2 25.1298940272 65.3814459143 4.79553550407
320 18 2 25.6095822575 64.4872217312 4.58826615475
321 18 2 25.9310106482 63.5034277528 4.62740013878
322 18 2 26.0521950181 62.5110841199 4.89807842359
323 18 2 25.9494020553 61.5919902158 5.36433830106
324 18 2 25.6193124463 60.8212692132 5.97239114187
325 19 1 24.3327543849 34.0172392339 16.8891097184
326 19 1 27.5423307752 38.3392291855 18.0534366396
327 19 2 24.603451249 33.5489433084 16.7674426085
328 19 2 25.2279866157 32.8129412383 16.3920031332
329 19 2 25.9686450328 32.3164425727 15.8651137186
330 19 2 26.7724915584 32.105391674 15.2470631118
331 19 2 27.5808320876 32.1997162981 14.6064487775
332 19 2 28.3345629179 32.5915113153 14.0139247097
333 19 2 28.9795576466 33.2457592092 13.535761804
334 19 2 29.471600421 34.1035216831 13.2278077204
335 19 2 29.7804159103 35.0873114817 13.1303967515
336 19 2 29.8924286948 36.108154823 13.2646736288
337 19 2 29.8120005717 37.0737007486 13.6306663248
338 19 2 29.5610330078 37.8966382807 14.207283504
339 19 2 29.1769709706 38.5026542184 14.9542368532
340 19 2 28.7093900763 38.8372062773 15.8157130852
341 19 2 28.2154781123 38.870494244 16.7254609371
342 19 2 27.7548227626 38.600176062 17.6128295191
343 20 1 24.4532798665 32.4167236032 41.461490253
344 20 1 28.6728663402 35.4109117312 43.3500247038
345 20 2 24.1033975917 32.6874584402 41.127325932
346 20 2 23.4508342568 33.3529928909 40.675747301
347 20 2 22.8621064045 34.1812702039 40.4756111478
348 20 2 22.402839522 35.1076804746 40.5350772049
349 20 2 22.1268596165 36.0586696523 40.8386442434
350 20 2 22.0712873441 36.9584434871 41.3485629034
351 20 2 22.2531547161 37.7358756568 42.0082762893
352 20 2 22.6678527481 38.330990443 42.7475747437
353 20 2 23.2895515376 38.7004291068 43.4889949753
354 20 2 24.0735544821 38.8214017407 44.1548803078
355 20 2 24.960372068 38.6937644123 44.6744585528
356 20 2 25.8811439324 38.3400322827 44.99029241
357 20 2 26.7639150124 37.8033275041 45.0635144831
358 20 2 27.5401937563 37.1434489311 44.8773697764
359 20 2 28.1511946584 36.4314218651 44.4387427982
360 20 2 28.5531961554 35.7430245853 43.7775300846
361 21 1 65.5329144182 42.1192856922 29.0224056527
362 21 1 60.0552273069 41.8560731015 28.5102553141
363 21 2 65.7534681048 41.7585092468 29.3809822545
364 21 2 66.0002276328 41.1685372569 30.1956853033
365 21 2 66.0041039473 40.72166774 31.1300251131
366 21 2 65.7540872768 40.4431352179 32.0957422402
367 21 2 65.2623084545 40.3428314494 33.0017174137
368 21 2 64.562933276 40.4144038644 33.762276432
369 21 2 63.7090485218 40.635834557 34.304998779
370 21 2 62.7678234607 40.9714470669 34.5773182579
371 21 2 61.8143878316 41.3751580438 34.5513140392
372 21 2 60.9249842831 41.7946774293 34.2262554532
373 21 2 60.1700193787 42.1762743365 33.6286685855
374 21 2 59.607646521 42.4696742529 32.8099186059
375 21 2 59.2784656682 42.6326412167 31.8415281857
376 21 2 59.2018229258 42.6348273356 30.8086586963
377 21 2 59.3740472823 42.4605387888 29.8023483344
378 21 2 59.768785196 42.1101662116 28.911214614
379 22 1 16.1506306158 8.27953226818 22.8544433004
380 22 1 13.6679447297 5.00675953256 26.5234846382
381 22 2 16.0907021652 8.82315385553 22.945354808
382 22 2 15.7506914095 9.78347687699 23.1320916589
383 22 2 15.1434982588 10.595911848 23.341767997
384 22 2 14.3256180749 11.1872741494 23.574278006
385 22 2 13.372748898 11.5045284204 23.8274347371
386 22 2 12.3728920898 11.5196223676 24.0971694344
387 22 2 11.4183316122 11.2320435396 24.3779023738
388 22 2 10.5972229771 10.6688660334 24.6630514173
389 22 2 9.98555847605 9.8822828758 24.9456319287
390 22 2 9.64024100374 8.94484898715 25.2188933765
391 22 2 9.59389774924 7.94286829765 25.4769345974
392 22 2 9.85190645148 6.96852773585 25.7152416479
393 22 2 10.3919052552 6.11149502218 25.9310992184
394 22 2 11.1658308408 5.45074607099 26.1238381159
395 22 2 12.1042990662 5.04736687741 26.2948962557
396 22 2 13.1229288559 4.93898594772 26.4476876054
397 23 1 12.0810639017 17.3677724929 31.4856842501
398 23 1 8.19150464306 19.8820504012 34.4666858101
399 23 2 12.6019718831 17.5132608683 31.6076217717
400 23 2 13.4909342193 18.0035610344 31.8126826967
401 23 2 14.1988309665 18.7390224291 31.9878312145
402 23 2 14.6603125329 19.6543139924 32.1360688253
403 23 2 14.8324883812 20.6677143769 32.2628497739
404 23 2 14.6988362067 21.6885602893 32.3755839327
405 23 2 14.2707078322 22.625509827 32.482961443
406 23 2 13.5862945671 23.3948676672 32.5941606676
407 23 2 12.7071463317 23.9282133209 32.7180116464
408 23 2 11.7125618035 24.178637192 32.8621912984
409 23 2 10.6923608867 24.1250160652 33.0325237237
410 23 2 9.7386982436 23.7739383419 33.2324493762
411 23 2 8.93766402926 23.1591035533 33.4627114903
412 23 2 8.36143736374 22.3382508783 33.7212883397
413 23 2 8.06170770036 21.387896614 34.0035775041
414 23 2 8.06496368641 20.3963602394 34.3028153483
415 24 1 51.7598833468 6.53832666008 49.4491706835
416 24 1 51.3877489249 7.7449427823 54.8103485795
417 24 2 52.0247948942 6.91531974128 49.1408221139
418 24 2 52.3738970795 7.77014666318 48.6716772866
419 24 2 52.5179695648 8.75593117188 48.3885336968
420 24 2 52.4579290428 9.78818054269 48.3289128676
421 24 2 52.2132957074 10.7781670973 48.5099637554
422 24 2 51.8204141216 11.6410151234 48.9268997392
423 24 2 51.3291406604 12.3034367137 49.553434889
424 24 2 50.7982994433 12.7104114566 50.344179748
425 24 2 50.2903209196 12.8302011692 51.2387782699
426 24 2 49.8655517611 12.657242615 52.1674088593
427 24 2 49.576754676 12.2126545551 53.057148131
428 24 2 49.4642994505 11.5423129177 53.8386173771
429 24 2 49.5524835194 10.7126695217 54.4523059598
430 24 2 49.8473174212 9.80469544916 54.8539952987
431 24 2 50.3359769791 8.90650108623 55.0187890909
432 24 2 50.9879721366 8.10530546562 54.9433824385
433 25 1 53.4000570014 44.822636388 23.9549269869
434 25 1 55.3053775257 42.3063085989 19.4411167245
435 25 2 52.8476983988 44.8514797983 23.9929898748
436 25 2 51.8319314535 44.989267292 23.8449007446
437 25 2 50.9141493336 45.21037904 23.4188915353
438 25 2 50.1727855784 45.4776899004 22.7468625497
439 25 2 49.6701944028 45.7498639989 21.8831371065
440 25 2 49.446967538 45.9851222104 20.899510342
441 25 2 49.5182345737 46.1450500398 19.8787055761
442 25 2 49.8722839997 46.1980988399 18.9068346485
443 25 2 50.4716306297 46.1224612541 18.0655494152
444 25 2 51.256432119 45.9080588077 17.4245997413
445 25 2 52.1499431839 45.5574604916 17.0354762792
446 25 2 53.0655104083 45.0856486166 16.9267174487
447 25 2 53.9144701085 44.5186532781 17.1013083557
448 25 2 54.6142294197 43.8911798919 17.53640872
449 25 2 55.0957940697 43.2434460329 18.1854346107
450 25 2 55.3100567339 42.6175158794 18.9823042517
451 26 1 21.4395324594 24.5614045 37.6387988617
452 26 1 20.2953479537 21.5820006499 42.12774411
453 26 2 21.1845075691 25.052909741 37.6111283901
454 26 2 20.5158327166 25.8438254215 37.6061686383
455 26 2 19.6522728106 26.4111670936 37.6774847438
456 26 2 18.6731475838 26.7088962272 37.8367625653
457 26 2 17.6683097559 26.7155476268 38.0876708544
458 26 2 16.7299555735 26.4361858364 38.4255268734
459 26 2 15.9442217551 25.9019435415 38.8377231956
460 26 2 15.3833347191 25.1671840381 39.304876785
461 26 2 15.0990276415 24.3045463909 39.8025956277
462 26 2 15.1178253311 23.3983248807 40.3037018963
463 26 2 15.4386266755 22.5367861587 40.7807090231
464 26 2 16.0328049998 21.8041243461 41.2083269115
465 26 2 16.8468171913 21.2727873176 41.5657669558
466 26 2 17.8070837879 20.9968735741 41.8386367793
467 26 2 18.8266952411 21.007201535 42.0202520014
468 26 2 19.8133331255 21.3085006513 42.1122454725
469 27 1 45.2975367491 35.7491219512 43.4678991313
470 27 1 40.0579963391 36.7921723487 44.8080099799
471 27 2 45.6700477134 35.8748135103 43.8588185157
472 27 2 46.2534139541 36.3161989677 44.5920040163
473 27 2 46.6364292406 36.9854095495 45.2834913688
474 27 2 46.7749898761 37.8162703627 45.886126856
475 27 2 46.6472725294 38.7278732044 46.3608549987
476 27 2 46.2557232816 39.631950789 46.6802781955
477 27 2 45.626834683 40.4409217067 46.831153826
478 27 2 44.8087311381 41.0758728683 46.8156012247
479 27 2 43.8667826968 41.4737518921 46.6509085186
480 27 2 42.8776470221 41.5931138966 46.3679569326
481 27 2 41.9222825699 41.417898917 46.0084061777
482 27 2 41.0785697804 40.9588956609 45.620897454
483 27 2 40.4142128107 40.2527581917 45.2566201389
484 27 2 39.9805687642 39.3586651617 44.9646462259
485 27 2 39.8079668434 38.3529260843 44.7874577495
486 27 2 39.9029440506 37.3220262444 44.7570748382
487 28 1 21.6901634495 41.471771886 37.4897789796
488 28 1 25.194010792 37.6614792995 39.3716289028
489 28 2 21.2112469302 41.508472327 37.7666775111
490 28 2 20.3111999422 41.3440145446 38.2520302986
491 28 2 19.481273524 40.8886578753 38.6722334819
492 28 2 18.8028590998 40.1812643429 39.0069670034
493 28 2 18.3435388142 39.2836674035 39.2437007793
494 28 2 18.1509258832 38.2750362497 39.3788367309
495 28 2 18.248324976 37.2446600813 39.4180367242
496 28 2 18.6326081543 36.2838100073 39.3757065304
497 28 2 19.2744999623 35.4774203098 39.2736828382
498 28 2 20.1212456836 34.8963472666 39.1392429893
499 28 2 21.1014195723 34.5909110872 39.0026188359
500 28 2 22.1314348198 34.5863095707 38.8942413146
501 28 2 23.1231619192 34.8803214994 38.8419668752
502 28 2 23.9919610661 35.4435090873 38.8685385561
503 28 2 24.664396496 36.2219010326 38.9895131125
504 28 2 25.0849296508 37.1419116317 39.2118431247
505 29 1 47.8513448856 16.8991840136 38.1122900307
506 29 1 52.845341508 17.9735350173 36.0525806864
507 29 2 47.4483738629 16.8431973918 37.7356461609
508 29 2 46.7801210987 16.9424929028 36.9506130942
509 29 2 46.2826671808 17.2901196088 36.1113315301
510 29 2 46.0104125003 17.8451112969 35.2803322003
511 29 2 45.9972320816 18.5476018581 34.5193909679
512 29 2 46.2533881065 19.3242816721 33.8838983806
513 29 2 46.7645945868 20.0950792771 33.4178112024
514 29 2 47.4933194335 20.7804593343 33.1496460554
515 29 2 48.3822052503 21.3086717286 33.0898803259
516 29 2 49.3592970661 21.6222910999 33.2299972217
517 29 2 50.344600538 21.6834507709 33.54326202
518 29 2 51.2573728871 21.4772940351 33.9871587538
519 29 2 52.0234820486 21.0133282437 34.5072652506
520 29 2 52.5821633021 20.3245582757 35.0422133408
521 29 2 52.8915575588 19.4644783695 35.5292821451
522 29 2 52.9325265304 18.5021964901 35.9101146529
523 30 1 6.85969042175 44.1996760419 43.1355922919
524 30 1 2.56963956025 47.6080698312 43.6967966305
525 30 2 7.33963155101 44.4447445009 43.0052898956
526 30 2 8.10731347849 45.0052931449 42.594013897
527 30 2 8.64563804519 45.667397063 42.0070527964
528 30 2 8.90464788681 46.3866645694 41.3082921598
529 30 2 8.85984326126 47.1134939093 40.5718073145
530 30 2 8.51441503212 47.7975941184 39.8751118908
531 30 2 7.89895384333 48.3925686999 39.2920929858
532 30 2 7.06866199175 48.8601443469 38.8862768616
533 30 2 6.09832211622 49.1736592917 38.7050389616
534 30 2 5.07548127282 49.3204933437 38.7752859638
535 30 2 4.09247162085 49.3032181327 39.1010034216
536 30 2 3.23799497965 49.1393627225 39.6628925079
537 30 2 2.58903826581 48.8598159575 40.4201289708
538 30 2 2.20385666366 48.5060111555 41.3140839845
539 30 2 2.11666406453 48.1261497455 42.2736677646
540 30 2 2.33451470519 47.7708080375 43.2218089144
541 31 1 22.4975229502 24.5262003572 23.8213320077
542 31 1 21.3652749861 19.664071269 26.1482076391
543 31 2 22.2686944053 24.9654457832 24.0704940122
544 31 2 21.6442522453 25.6582504615 24.5208182704
545 31 2 20.8161231599 26.1259431448 24.9308963642
546 31 2 19.8613977683 26.3211504637 25.2817407747
547 31 2 18.8687050753 26.2213342219 25.5597627274
548 31 2 17.9301345446 25.830845598 25.7580107151
549 31 2 17.1328427763 25.180528565 25.8768040811
550 31 2 16.5511097795 24.3249086743 25.9237039123
551 31 2 16.2395688594 23.3372234251 25.9128238987
552 31 2 16.2282271658 22.3027471685 25.8635439667
553 31 2 16.5197307474 21.3110189353 25.7987439323
554 31 2 17.089123382 20.4476815668 25.7427181622
555 31 2 17.8861211659 19.7866759575 25.7189613091
556 31 2 18.8396955462 19.3835018491 25.7480269353
557 31 2 19.8645470869 19.2701594098 25.845654196
558 31 2 20.8688799275 19.4522326381 26.0213333239
559 32 1 37.8940248392 61.5972178113 65.8818154484
560 32 1 41.6546215828 64.2644604039 62.8684512137
561 32 2 37.4685583036 61.3870256014 65.5951480215
562 32 2 36.6624795784 61.2111881596 64.9690357682
563 32 2 35.9138330199 61.3252009549 64.2624753078
564 32 2 35.299535286 61.712559261 63.524037695
565 32 2 34.8842580601 62.3318447821 62.8051993683
566 32 2 34.7145336708 63.1205006472 62.1556504254
567 32 2 34.8145139891 64.0005330397 61.6187657122
568 32 2 35.1837691513 64.8856197986 61.227651502
569 32 2 35.7973267376 65.6889780926 61.0021280866
570 32 2 36.6079478374 66.3312740791 60.9469232917
571 32 2 37.5504325517 66.7478536411 61.051241569
572 32 2 38.5475625173 66.8946351657 61.2897479354
573 32 2 39.5171388309 66.7521272816 61.6248770838
574 32 2 40.3794739158 66.3272053636 62.0102572028
575 32 2 41.0646544978 65.6524848896 62.3949364496
576 32 2 41.5189137214 64.783348763 62.7280268612
577 33 1 57.8177829566 56.5723407741 8.48741267359
578 33 1 53.9353129908 60.1931741719 7.02022918235
579 33 2 58.2684503968 56.5665911348 8.16454032792
580 33 2 58.9526956042 56.5397661193 7.38750288617
581 33 2 59.3796723788 56.5098955557 6.4443714773
582 33 2 59.5126994416 56.4982441097 5.41730462677
583 33 2 59.3418870143 56.5244158994 4.39611100009
584 33 2 58.8850382048 56.6045677143 3.47006395869
585 33 2 58.1860263763 56.7499364347 2.71976490505
586 33 2 57.310796391 56.9658148671 2.20979701756
587 33 2 56.3413541876 57.2510693412 1.98283893652
588 33 2 55.368292503 57.5982430359 2.05577489873
589 33 2 54.4825339645 57.9942356181 2.41815585505
590 33 2 53.7670441166 58.4214972474 3.03315182958
591 33 2 53.2892696797 58.8596281244 3.84090871949
592 33 2 53.0949912446 59.2872377923 4.76400358608
593 33 2 53.2041506851 59.6838947301 5.71450122486
594 33 2 53.6090335928 60.0319885462 6.60196885652