LAMMPS input file for bananas

4320 atoms

2 atom types

0 126.992084157 xlo xhi
0 126.992084157 ylo yhi
0 126.992084157 zlo zhi

Masses

 1 1
 2 1

Atoms

1 1 1 96.4359846946 49.1811960654 104.126137711
2 1 1 94.2241595293 50.6914473893 99.2944753221
3 1 2 96.1095751618 48.8651162774 104.443835637
4 1 2 95.3408705824 48.4428768014 104.995430693
5 1 2 94.4210486026 48.263303125 105.437166849
6 1 2 93.4254516414 48.3315483944 105.715697431
7 1 2 92.436328805 48.6301777215 105.792551518
8 1 2 91.5353391003 49.1207573266 105.647640462
9 1 2 90.7961084349 49.7473576757 105.281088915
10 1 2 90.2775188123 50.4416513072 104.713223466
11 1 2 90.0183413946 51.1291406979 103.982719931
12 1 2 90.0337026148 51.7359485129 103.14307815
13 1 2 90.3137054429 52.1955513273 102.257745625
14 1 2 90.8243314735 52.4548430585 101.394334445
15 1 2 91.510541613 52.478975444 100.618458627
16 1 2 92.3012927452 52.2545343667 99.9877535768
17 1 2 93.1160131221 51.7907625167 99.5466227688
18 1 2 93.871946263 51.118716944 99.3221904941
19 2 1 115.977289778 81.2357414078 13.2342116095
20 2 1 111.382970579 82.8166995865 10.605372817
21 2 2 116.414642846 81.1445607734 12.9058977751
22 2 2 117.079648858 80.8419272694 12.1713026643
23 2 2 117.492351585 80.4040675271 11.3278541971
24 2 2 117.613234752 79.8849048438 10.4394244703
25 2 2 117.42938066 79.3457730626 9.57398550275
26 2 2 116.955647596 78.8498261567 8.79741376659
27 2 2 116.233315539 78.4562819132 8.16748572356
28 2 2 115.326323604 78.2150243901 7.72861165467
29 2 2 114.315442159 78.1620571181 7.50778778185
30 2 2 113.290910822 78.3162214746 7.51213563442
31 2 2 112.344213366 78.6774793427 7.72825294079
32 2 2 111.55973921 79.2269165857 8.12343520965
33 2 2 111.007091554 79.9284670193 8.64865665697
34 2 2 110.734743233 80.7321997489 9.24303877516
35 2 2 110.765618545 81.5788702366 9.83939924633
36 2 2 111.095003767 82.4053202825 10.370375431
37 3 1 54.4802627084 30.0739405893 101.039867619
38 3 1 53.7935016546 25.614591713 104.227430625
39 3 2 54.327841172 30.5533606753 101.272903334
40 3 2 53.844483015 31.3322815638 101.755704693
41 3 2 53.1475558313 31.8949934543 102.276375261
42 3 2 52.3063279365 32.1877129194 102.805620908
43 3 2 51.4032202705 32.1812656198 103.31336591
44 3 2 50.5262939488 31.8737454669 103.771494269
45 3 2 49.7612237274 31.2906883585 104.156412411
46 3 2 49.1834889777 30.482744649 104.451199677
47 3 2 48.8514939437 29.5210625056 104.647150599
48 3 2 48.8012443509 28.4908029429 104.744568374
49 3 2 49.043065581 27.4833776238 104.752737235
50 3 2 49.5606615408 26.5881169311 104.689076214
51 3 2 50.3126000076 25.8841277415 104.577551444
52 3 2 51.2360890655 25.4330830458 104.446491711
53 3 2 52.2527004208 25.2736006197 104.326006362
54 3 2 53.2755179311 25.4177231177 104.245240916
55 4 1 11.3496528637 28.8699096527 83.0172175371
56 4 1 6.82117202149 30.4311135662 85.7692158409
57 4 2 11.5231306829 28.354700262 83.1260583292
58 4 2 11.8288147828 27.4617042595 83.5533350332
59 4 2 12.0719524995 26.7228483742 84.2377516041
60 4 2 12.2137371305 26.1960195796 85.1185458768
61 4 2 12.2246000361 25.9197791469 86.1170563834
62 4 2 12.086905742 25.9098478876 87.1438921359
63 4 2 11.7965593657 26.1576732439 88.1070803759
64 4 2 11.3633798538 26.6312088315 88.9204496457
65 4 2 10.8102050117 27.2778353818 89.511484086
66 4 2 10.1708098981 28.0291568473 89.8279330634
67 4 2 9.48682831921 28.8072345192 89.8425736753
68 4 2 8.80395801841 29.5316909317 89.5556920449
69 4 2 8.16779544897 30.1270360536 88.995057242
70 4 2 7.61967977928 30.5295480028 88.2133902063
71 4 2 7.1929249382 30.6930811253 87.283558375
72 4 2 6.90978313938 30.5932720487 86.29193401
73 5 1 54.9811464234 116.114237843 25.3994010897
74 5 1 52.2017392154 112.779742721 28.8161288979
75 5 2 54.93635793 116.655029111 25.513068956
76 5 2 54.6222177746 117.618483914 25.7287558034
77 5 2 54.0349171225 118.443498444 25.947568466
78 5 2 53.2282178456 119.05485284 26.1687744546
79 5 2 52.2758794137 119.396801795 26.3914231343
80 5 2 51.2649359164 119.438155585 26.6144323731
81 5 2 50.2877631385 119.175122932 26.8366871749
82 5 2 49.4336587539 118.63165657 27.0571413085
83 5 2 48.7807030813 117.857270016 27.2749126689
84 5 2 48.3886422721 116.922524544 27.4893636784
85 5 2 48.2934426081 115.912597716 27.7001594009
86 5 2 48.5040122712 114.919519672 27.9072980695
87 5 2 49.0013893863 114.033784834 28.1111112481
88 5 2 49.7404703457 113.336103573 28.3122336104
89 5 2 50.6541208823 112.890045682 28.5115450903
90 5 2 51.6592951787 112.736246155 28.7100906794
91 6 1 121.233276298 109.961635295 37.3539134376
92 6 1 123.445666577 105.733460834 40.1370521397
93 6 2 121.009612138 110.35811487 37.6703938926
94 6 2 120.48205271 110.91794672 38.3644539481
95 6 2 119.865309221 111.198844256 39.1481465243
96 6 2 119.227995017 111.175950304 39.9646981052
97 6 2 118.640598412 110.85209747 40.7543401644
98 6 2 118.169057862 110.257549961 41.4597569066
99 6 2 117.868751854 109.447245078 42.0313094489
100 6 2 117.779451304 108.49578583 42.4315602724
101 6 2 117.921694545 107.490641069 42.6386855522
102 6 2 118.294915312 106.524172939 42.6484643402
103 6 2 118.877494355 105.685218312 42.474663294
104 6 2 119.628729978 105.050991545 42.1477818821
105 6 2 120.492547889 104.680046598 41.7122724392
106 6 2 121.402612219 104.606939996 41.2224884549
107 6 2 122.288371863 104.839081095 40.737730398
108 6 2 123.081491024 105.35605674 40.3168406375
109 7 1 113.109353581 27.2889139427 119.685679179
110 7 1 116.161722384 24.6167515095 123.435423662
111 7 2 112.72168963 27.624639801 119.896359975
112 7 2 111.940227319 28.0623996847 120.417064259
113 7 2 111.155294559 28.2255710483 121.073345966
114 7 2 110.447537435 28.1066797467 121.820604103
115 7 2 109.890567682 27.7239608929 122.60594542
116 7 2 109.544253167 27.119696776 123.373005486
117 7 2 109.449261095 26.3563629438 124.067086158
118 7 2 109.623351304 25.5109337236 124.640141167
119 7 2 110.059757498 24.6678662176 125.055155414
120 7 2 110.727803984 23.9114022644 125.28951879
121 7 2 111.575701672 23.31789002 125.33708703
122 7 2 112.535268518 22.9488250277 125.208741749
123 7 2 113.528144131 22.8452450638 124.931398606
124 7 2 114.472932116 23.0239896537 124.545554019
125 7 2 115.292619138 23.4761651943 124.101594022
126 7 2 115.921594477 24.1679555824 123.655201714
127 8 1 29.4210633926 118.393824737 96.1734432105
128 8 1 34.7795374853 119.700540437 95.8616090584
129 8 2 29.2286838822 118.317957007 96.6878514137
130 8 2 29.0558571579 118.034470772 97.6692873461
131 8 2 29.1466856156 117.601656309 98.6062355001
132 8 2 29.5022687612 117.072624866 99.4230196634
133 8 2 30.0995744189 116.509257608 100.05491625
134 8 2 30.8935380517 115.976565323 100.454053682
135 8 2 31.8211702738 115.536762852 100.593775757
136 8 2 32.8072981649 115.243598381 100.471071288
137 8 2 33.7714170808 115.137454433 100.106848569
138 8 2 34.6350284364 115.241667112 99.5440296321
139 8 2 35.3287946422 115.560399074 98.843638028
140 8 2 35.7988590402 116.078260119 98.0792366866
141 8 2 36.0117547942 116.761709963 97.3302228545
142 8 2 35.9574553025 117.562115343 96.674591248
143 8 2 35.6502880961 118.420182815 96.1818250431
144 8 2 35.127628922 119.271363186 95.9065626697
145 9 1 115.272666267 29.6024805413 111.151346874
146 9 1 113.370485283 28.3001637882 116.171672525
147 9 2 115.049614744 30.058290501 110.928037926
148 9 2 114.429624265 30.8062086862 110.567926546
149 9 2 113.59482184 31.3691791 110.323756042
150 9 2 112.619696862 31.707358117 110.233112558
151 9 2 111.59152875 31.8013912465 110.319588662
152 9 2 110.602431665 31.654177243 110.590632946
153 9 2 109.740958545 31.2906038926 111.036871103
154 9 2 109.084029746 30.7552795573 111.632960376
155 9 2 108.689921957 30.1084672425 112.339899476
156 9 2 108.592956433 29.4205917848 113.108583451
157 9 2 108.800370707 28.7658208166 113.884279467
158 9 2 109.291658905 28.2153045846 114.611615562
159 9 2 110.020440805 27.830690795 115.239627653
160 9 2 110.918689269 27.6585055896 115.726404771
161 9 2 111.902930734 27.7259128127 116.042909141
162 9 2 112.881853605 28.038238099 116.175622891
163 10 1 102.744440473 108.709267737 14.5362416834
164 10 1 99.9734088014 105.346531172 17.932029858
165 10 2 102.717069132 109.247400814 14.6667989129
166 10 2 102.434492739 110.211709612 14.9192055991
167 10 2 101.875392846 111.044564685 15.1784540278
168 10 2 101.091489929 111.669453476 15.4401030813
169 10 2 100.15499466 112.028818998 15.6994928313
170 10 2 99.1520260927 112.089306002 15.952169279
171 10 2 98.1747621474 111.844801213 16.1942903251
172 10 2 97.3130378356 111.316990548 16.4229759671
173 10 2 96.6461570398 110.553382493 16.6365708035
174 10 2 96.2356641773 109.622977838 16.8347949195
175 10 2 96.1197345902 108.609980438 17.0187694003
176 10 2 96.3096949656 107.606122255 17.1909141474
177 10 2 96.7889909378 106.702302234 17.3547273107
178 10 2 97.5146959749 105.980301112 17.514466442
179 10 2 98.4214240176 105.505327318 17.6747604299
180 10 2 99.4272892431 105.320073399 17.8401875895
181 11 1 13.0610299715 26.3768955527 94.0688415945
182 11 1 7.83870025534 28.1773240358 94.0078442659
183 11 2 13.1492040094 25.9064511614 93.7890398759
184 11 2 13.1308743597 24.9497224875 93.3918191819
185 11 2 12.8670904714 23.9712113356 93.1764497387
186 11 2 12.3704090486 23.062415494 93.1473345595
187 11 2 11.6746147831 22.3084783867 93.2919000795
188 11 2 10.8316409704 21.7804284781 93.5817422024
189 11 2 9.90683592807 21.528705218 93.9752152576
190 11 2 8.97300667171 21.5785616209 94.4212278923
191 11 2 8.10378274987 21.927762521 94.8638999111
192 11 2 7.36690510752 22.5467883017 95.2476556071
193 11 2 6.81805167999 23.3815255296 95.5222893386
194 11 2 6.49576249798 24.3581992497 95.6475416395
195 11 2 6.41792686675 25.3900973748 95.5967687615
196 11 2 6.5801528038 26.3854742609 95.3593711812
197 11 2 6.95616735629 27.2559130774 94.9417597179
198 11 2 7.50021131048 27.9243847646 94.3667712046
199 12 1 108.467392716 20.4611627208 29.4257611058
200 12 1 107.469653145 15.2656932931 31.0162340656
201 12 2 108.141509562 20.8437736134 29.6598351606
202 12 2 107.35957114 21.4151160988 30.0280607417
203 12 2 106.414930813 21.7487962847 30.2921860879
204 12 2 105.392040013 21.8076789559 30.4460602376
205 12 2 104.382482492 21.5796759564 30.4935813311
206 12 2 103.476626708 21.0788479921 30.4483413054
207 12 2 102.755388984 20.3441230353 30.3323870259
208 12 2 102.282858201 19.435748144 30.1742107729
209 12 2 102.100454265 18.4297981038 30.0061532469
210 12 2 102.223152798 17.4112414141 29.8614557999
211 12 2 102.638120144 16.4661956368 29.7712305753
212 12 2 103.30588313 15.6740780105 29.7616247189
213 12 2 104.163926932 15.1003667818 29.8514371366
214 12 2 105.132393142 14.7906330377 30.0504050244
215 12 2 106.121358641 14.7663870231 30.3583163488
216 12 2 107.039031857 15.0231175395 30.7650291733
217 13 1 33.5997060705 89.5498237518 51.6054745141
218 13 1 36.7900393825 87.9892153862 47.3741312346
219 13 2 33.8431330666 89.8914683074 51.9679712496
220 13 2 34.4686520045 90.3679912174 52.6425837204
221 13 2 35.2738522957 90.6058894126 53.249631454
222 13 2 36.1958172384 90.5946515831 53.7221823685
223 13 2 37.1609873448 90.3464745018 54.0055634076
224 13 2 38.0918650918 89.8951513211 54.0623438436
225 13 2 38.9140786133 89.2929914173 53.875746988
226 13 2 39.5631604969 88.6060525311 53.4511793419
227 13 2 39.9904238164 87.9081197805 52.8157378082
228 13 2 40.1673998146 87.2739803452 52.0157398808
229 13 2 40.0884327548 86.7726068146 51.1125019291
230 13 2 39.771195426 86.4608705205 50.1767503748
231 13 2 39.2550783153 86.3783578679 49.2821751676
232 13 2 38.5975992704 86.5437621392 48.4987131432
233 13 2 37.8691609014 86.9531796518 47.8861734676
234 13 2 37.1466335714 87.5804655686 47.4887861916
235 14 1 64.9821437543 74.8130788156 63.3982553404
236 14 1 61.545106425 78.2110004222 66.0738663385
237 14 2 65.1579852515 74.9985825961 62.9062698697
238 14 2 65.2573154754 75.3814594708 61.9486745394
239 14 2 65.0535811021 75.7963366638 61.0214101591
240 14 2 64.567682385 76.2241451332 60.2125020299
241 14 2 63.8462381034 76.6446371858 59.5991875971
242 14 2 62.9573363852 77.0382320001 59.2408764632
243 14 2 61.984328656 77.3878003662 59.1737353617
244 14 2 61.0182323796 77.6802259672 59.4073916558
245 14 2 60.1494350592 77.9076008964 59.92405583
246 14 2 59.4594556585 78.0679464421 60.6801429571
247 14 2 59.0135143654 78.1653934417 61.6102453475
248 14 2 58.8545879469 78.209805767 62.6330942855
249 14 2 58.9994925311 78.2158812586 63.6589674556
250 14 2 59.4373508622 78.201812057 64.5978668914
251 14 2 60.1305837335 78.1876264376 65.3677220502
252 14 2 61.0183352316 78.1933632871 65.901870323
253 15 1 52.2792891503 119.085955868 78.7154605887
254 15 1 49.7228108121 115.430276145 81.9740515931
255 15 2 52.2234353101 119.615536335 78.8697540296
256 15 2 51.890318456 120.550836808 79.1658894672
257 15 2 51.288365136 121.33946431 79.4645010438
258 15 2 50.4733795929 121.908141762 79.7575104837
259 15 2 49.5205833875 122.203639941 80.037350131
260 15 2 48.5177591539 122.197629187 80.2976527213
261 15 2 47.5572494474 121.889261573 80.5338317406
262 15 2 46.7275399671 121.30524819 80.743499474
263 15 2 46.1051943213 120.497424507 80.9266846394
264 15 2 45.7478754589 119.5380257 81.08582977
265 15 2 45.6890898457 118.513102617 81.2255685839
266 15 2 45.9351334401 117.514678465 81.3523036333
267 15 2 46.4645178326 116.632361145 81.4736227284
268 15 2 47.2299288575 115.945175731 81.5976073295
269 15 2 48.1625391522 115.514361546 81.732095943
270 15 2 49.1782815878 115.377790359 81.8839696627
271 16 1 103.117181684 120.742099018 43.7397978
272 16 1 101.72338247 119.629630018 38.5112485237
273 16 2 103.386112884 120.334107938 44.0017154914
274 16 2 103.710706659 119.439803666 44.4119699991
275 16 2 103.788144088 118.440638432 44.6748811814
276 16 2 103.622614668 117.420822202 44.7525012843
277 16 2 103.240453679 116.466447228 44.6237713402
278 16 2 102.687741785 115.657640965 44.2864406371
279 16 2 102.026104914 115.061262669 43.7572718644
280 16 2 101.327097211 114.724809355 43.0705132389
281 16 2 100.665679074 114.672086571 42.2747768712
282 16 2 100.113384712 114.901038583 41.4286079019
283 16 2 99.731801993 115.383935756 40.5951482685
284 16 2 99.5669588768 116.06990203 39.8363814864
285 16 2 99.6451280862 116.889552139 39.2074830172
286 16 2 99.9704324205 117.761315894 38.751791173
287 16 2 100.524468973 118.598873085 38.496856945
288 16 2 101.267986506 119.319021341 38.4519328041
289 17 1 105.322934059 61.7230277275 111.448863132
290 17 1 100.789495038 62.3022042821 108.345562273
291 17 2 105.380792748 62.1006661845 111.850638138
292 17 2 105.449524749 62.9589945753 112.426831072
293 17 2 105.446404027 63.9480058234 112.735533232
294 17 2 105.353574104 64.9797379062 112.754547065
295 17 2 105.161355254 65.9623349112 112.488079337
296 17 2 104.869126786 66.8084194571 111.966357692
297 17 2 104.485383619 67.4430569082 111.242875488
298 17 2 104.026961993 67.8105854664 110.389516019
299 17 2 103.517504889 67.8796895953 109.490000545
300 17 2 102.985307035 67.6462543474 108.632257319
301 17 2 102.460735918 67.1337404312 107.900407171
302 17 2 101.973463869 66.3910458295 107.367096108
303 17 2 101.549763507 65.4880488796 107.086873833
304 17 2 101.210113064 64.5092390492 107.091221682
305 17 2 100.967329845 63.5460159477 107.385683184
306 17 2 100.825401966 62.6883584956 107.949358785
307 18 1 66.5460225632 72.5790959807 64.0410634833
308 18 1 63.3340831229 68.6553208184 66.2331913468
309 18 2 66.4343355593 73.0946733133 64.2116144002
310 18 2 66.0048755085 74.0006223966 64.472900325
311 18 2 65.3203939376 74.7569138015 64.6544445377
312 18 2 64.4391457534 75.2917751886 64.7582469727
313 18 2 63.4373206131 75.5536169726 64.7933935194
314 18 2 62.4020984417 75.5157345754 64.7752278681
315 18 2 61.4237032139 75.1787424768 64.7239529734
316 18 2 60.5871792805 74.5705182065 64.6627896091
317 18 2 59.9646398032 73.7436613817 64.6158598563
318 18 2 59.6086938321 72.7706993928 64.6059884406
319 18 2 59.5476511321 71.7374767249 64.6526223192
320 18 2 59.7829418229 70.7353304635 64.7700581428
321 18 2 60.2889860278 69.8527651623 64.9661391541
322 18 2 61.0155254109 69.1673858903 65.2415402969
323 18 2 61.8922040902 68.7388247368 65.5897066972
324 18 2 62.8349813879 68.6033055062 65.9974511223
325 19 1 53.5096625316 83.3735205237 102.797627693
326 19 1 51.9829195624 85.4742836888 107.673470296
327 19 2 53.7142952289 83.7425788589 102.43804044
328 19 2 53.9013978699 84.552153609 101.819145184
329 19 2 53.8289969519 85.4617889812 101.328460349
330 19 2 53.513841998 86.4000750295 101.022279589
331 19 2 52.994808913 87.292990375 100.940079506
332 19 2 52.3293565481 88.0706490573 101.100921463
333 19 2 51.588289481 88.6736704527 101.50171419
334 19 2 50.8493043669 89.0585916596 102.117495545
335 19 2 50.1899080969 89.2018290255 102.903707747
336 19 2 49.6803532516 89.1018277341 103.800258701
337 19 2 49.3772347662 88.7792035226 104.736999227
338 19 2 49.3183314533 88.2748636122 105.640116974
339 19 2 49.5191625656 87.6462781246 106.438864218
340 19 2 49.9715732569 86.9622418337 107.072006328
341 19 2 50.6444778749 86.2966037058 107.493403135
342 19 2 51.486693335 85.721535764 107.676214492
343 20 1 113.856854803 85.0607697142 46.9099559988
344 20 1 118.189506341 82.1231747732 45.1445501899
345 20 2 113.861584413 85.5953370666 46.7629969415
346 20 2 114.088823075 86.5886589604 46.5755823817
347 20 2 114.586811136 87.4941551615 46.5011879432
348 20 2 115.317297066 88.2283751363 46.5287804233
349 20 2 116.220837779 88.7234797209 46.6380307841
350 20 2 117.222216706 88.9334244804 46.8011670903
351 20 2 118.237299586 88.8381565359 46.9855058466
352 20 2 119.180703079 88.4454423304 47.1564310111
353 20 2 119.973577233 87.7901597387 47.280549155
354 20 2 120.550792437 86.9311190425 47.328733184
355 20 2 120.866875823 85.9457025297 47.2787771959
356 20 2 120.900155986 84.9228113063 47.1174204884
357 20 2 120.654738281 83.954762198 46.8415562372
358 20 2 120.160130627 83.1288733184 46.4585146744
359 20 2 119.468553943 82.5195052561 45.9853949577
360 20 2 118.650182348 82.1812833058 45.4475066278
361 21 1 88.8941447006 118.42285729 106.766417607
362 21 1 84.355645581 117.17097523 109.656540115
363 21 2 88.8315112418 118.833823161 106.399585642
364 21 2 88.5274263777 119.476469695 105.645935963
365 21 2 87.9956507196 119.915255099 104.872546003
366 21 2 87.2730769092 120.12219243 104.159444299
367 21 2 86.4139883299 120.090427082 103.581164274
368 21 2 85.4851113215 119.834861555 103.199950717
369 21 2 84.5595332523 119.390797142 103.060086333
370 21 2 83.7100408014 118.810716302 103.183855497
371 21 2 83.002485647 118.159499029 103.569513089
372 21 2 82.4897822621 117.508509213 104.191443559
373 21 2 82.2070849016 116.929090012 105.002495717
374 21 2 82.1685833864 116.486061114 105.938280436
375 21 2 82.3662097383 116.231810593 106.923039548
376 21 2 82.7703735555 116.201519882 107.876551002
377 21 2 83.332659098 116.409957074 108.721440887
378 21 2 83.9902382534 116.850130852 109.390235856
379 22 1 108.849346603 46.9132687113 117.502193192
380 22 1 106.897381318 43.2038917221 121.100574069
381 22 2 108.757813219 47.4425503264 117.639540195
382 22 2 108.36521077 48.357931817 117.924829619
383 22 2 107.719222502 49.1039814513 118.240359509
384 22 2 106.881278436 49.6122831848 118.576408763
385 22 2 105.930304852 49.8360910585 118.921385994
386 22 2 104.955530369 49.7545899682 119.262886052
387 22 2 104.048352992 49.3747929061 119.588820725
388 22 2 103.294009434 48.7309017446 119.888520541
389 22 2 102.763806011 47.8811898278 120.153707268
390 22 2 102.508619267 46.902690511 120.379248447
391 22 2 102.554258708 45.8841757773 120.563625208
392 22 2 102.899114339 44.9180649079 120.709070705
393 22 2 103.51430341 44.0920007117 120.821366573
394 22 2 104.346302999 43.4808611178 120.909315948
395 22 2 105.321828484 43.1399342523 120.983941084
396 22 2 106.354513244 43.0998790731 121.057478703
397 23 1 116.342258247 42.1605805822 40.4196854766
398 23 1 114.510139792 40.6028150345 45.3930846691
399 23 2 116.752829636 42.5330604579 40.4281391544
400 23 2 117.376165449 43.3447131768 40.5897632223
401 23 2 117.771743288 44.2359369746 40.9400321571
402 23 2 117.913875499 45.1195324918 41.4620545778
403 23 2 117.79997532 45.9089956665 42.1232842323
404 23 2 117.450792655 46.5264023483 42.8784865011
405 23 2 116.908522779 46.9095108761 43.6738614123
406 23 2 116.232960352 47.0174352393 44.4519473647
407 23 2 115.49604929 46.8343717285 45.1568585998
408 23 2 114.775325276 46.3710394012 45.7393790389
409 23 2 114.146848587 45.6637030685 46.1614481971
410 23 2 113.6782714 44.7708678544 46.399630295
411 23 2 113.422671483 43.7679466101 46.4472503673
412 23 2 113.413714293 42.7403862343 46.315002668
413 23 2 113.662584463 41.7758794166 46.0299759177
414 23 2 114.15696635 40.9563716834 45.633184239
415 24 1 61.1129156668 11.1042308514 66.0394413791
416 24 1 60.3318428963 6.36433499988 63.3115660694
417 24 2 60.928914736 11.1058055296 66.5624354192
418 24 2 60.3873237688 11.0268668096 67.4421500967
419 24 2 59.6367706073 10.8331826387 68.1296138448
420 24 2 58.750131401 10.5246288312 68.5679236405
421 24 2 57.8126861788 10.1115512617 68.7228861777
422 24 2 56.9143458018 9.61382286622 68.5861344957
423 24 2 56.1414568292 9.05903227746 68.1758906051
424 24 2 55.5689312599 8.47996919448 67.5353046002
425 24 2 55.2534185043 7.91163568931 66.7285216435
426 24 2 55.2281419415 7.38805586165 65.8348353056
427 24 2 55.4998706976 6.93917463309 64.9414601677
428 24 2 56.0483026575 6.5881283476 64.1355824463
429 24 2 56.8279149488 6.34913595554 63.4964132019
430 24 2 57.7721132297 6.22620299439 63.0879684631
431 24 2 58.7993015854 6.21275649473 62.9532343365
432 24 2 59.8203197774 6.29224408876 63.1102489379
433 25 1 7.40466420306 33.0197318134 27.9968173013
434 25 1 6.63189817727 28.8492533451 31.5362993363
435 25 2 7.15821610372 33.495552671 28.1390826654
436 25 2 6.5081616029 34.2477717172 28.4307085622
437 25 2 5.66682206195 34.76224364 28.7483820247
438 25 2 4.71333507846 34.9921908272 29.0822036456
439 25 2 3.7370601897 34.9167693362 29.4208021562
440 25 2 2.82943398957 34.5429687629 29.7523708874
441 25 2 2.07563592751 33.9049751593 30.0657439151
442 25 2 1.54682442929 33.0610550658 30.3514138055
443 25 2 1.29365099675 32.088244672 30.6023981914
444 25 2 1.34164345875 31.0753281739 30.8148761967
445 25 2 1.68887917779 30.1147453318 30.9885366991
446 25 2 2.30616029333 29.2941658331 31.1266066877
447 25 2 3.13967502869 28.6884984344 31.235557132
448 25 2 4.11590249067 28.3530632291 31.32451317
449 25 2 5.14831390251 28.3185493684 31.4044223766
450 25 2 6.14525947057 28.588217827 31.4870569209
451 26 1 101.448116218 119.860544528 61.9187346113
452 26 1 98.5260557164 116.085687385 64.6990236313
453 26 2 101.345764356 120.386498639 62.0611353029
454 26 2 100.930098979 121.305954956 62.2962361067
455 26 2 100.255157172 122.068190937 62.488329515
456 26 2 99.3802001603 122.602250832 62.6389292064
457 26 2 98.3827200199 122.85797653 62.7533309013
458 26 2 97.351376483 122.81057934 62.8401296705
459 26 2 96.3779158397 122.462899409 62.9104365177
460 26 2 95.548808509 121.845146856 62.9768656415
461 26 2 94.9373674914 121.012148196 63.0523846842
462 26 2 94.5970660848 120.038349052 63.1491327665
463 26 2 94.556663936 119.011028635 63.277314039
464 26 2 94.8175856762 118.022344477 63.4442676008
465 26 2 95.3537910694 117.160932517 63.6537985606
466 26 2 96.1141485105 116.503828175 63.905831211
467 26 2 97.0270955342 116.109444777 64.1964159292
468 26 2 98.0071615427 116.012249337 64.5180891743
469 27 1 13.1844038034 25.7526976627 14.1993285343
470 27 1 9.53488651497 23.1667951123 17.4415689052
471 27 2 13.2065016764 26.3027792225 14.2649299799
472 27 2 13.0143362503 27.3161806942 14.3626024808
473 27 2 12.5332716753 28.23084655 14.4361773271
474 27 2 11.8049720008 28.965157739 14.4979565549
475 27 2 10.8936360943 29.4539340557 14.5613173395
476 27 2 9.8801460871 29.6543751423 14.6394927015
477 27 2 8.85469518338 29.5499616263 14.7443653525
478 27 2 7.90856679124 29.1519608176 14.8853846173
479 27 2 7.12581428382 28.4983997231 15.0687051536
480 27 2 6.57559975904 27.6505989866 15.2966259714
481 27 2 6.30589009922 26.6875836763 15.5673808839
482 27 2 6.33908491796 25.6988803607 15.8752994915
483 27 2 6.66997489524 24.7763570014 16.2113240228
484 27 2 7.266216593 24.0058494338 16.5638349266
485 27 2 8.07128047307 23.4593376602 16.919709963
486 27 2 9.00960341353 23.1883850651 17.2655202604
487 28 1 9.10642212472 46.1661100367 42.2462742708
488 28 1 9.68236816269 47.4029206731 36.8930904823
489 28 2 9.58198023809 46.0896464817 42.5208273505
490 28 2 10.5197798037 45.8024402196 42.8547353452
491 28 2 11.4553958795 45.3626694039 42.9231034629
492 28 2 12.3147840613 44.8238923089 42.711866141
493 28 2 13.0308479135 44.2486913668 42.2324431057
494 28 2 13.5495546304 43.7029689459 41.5206984939
495 28 2 13.8348599814 43.2499405262 40.6336719335
496 28 2 13.8719936468 42.9443727774 39.6443795334
497 28 2 13.6688054925 42.8275917229 38.6351586604
498 28 2 13.2550500761 42.9237159836 37.6901631085
499 28 2 12.6796745984 43.23745843 36.8876927052
500 28 2 12.0063574967 43.7536966166 36.2930564918
501 28 2 11.3077043255 44.4388511524 35.9526199784
502 28 2 10.6586299544 45.2439463726 35.8895790522
503 28 2 10.129530278 46.1090743397 36.1018457338
504 28 2 9.77986581799 46.9688552917 36.5622384913
505 29 1 95.2437371032 71.3479569828 71.6112392674
506 29 1 93.6726414764 72.1075450351 76.8526775799
507 29 2 95.0947018001 71.7518075112 71.2618471993
508 29 2 94.6036274035 72.4738807344 70.7042575578
509 29 2 93.8786063129 73.1089293847 70.324115951
510 29 2 92.9881465233 73.6147242778 70.1669443874
511 29 2 92.0158353249 73.9608173641 70.2579417516
512 29 2 91.052720545 74.1313169866 70.5996869938
513 29 2 90.1890117819 74.1263363636 71.1719040656
514 29 2 89.5058580413 73.9619832683 71.9333100269
515 29 2 89.0679512211 73.6688918491 72.8253778763
516 29 2 88.9176296177 73.2894304085 73.7776711304
517 29 2 89.071018904 72.8738396455 74.7142639212
518 29 2 89.5165623169 72.4756533503 75.5606614358
519 29 2 90.2160740253 72.1468189424 76.2505899199
520 29 2 91.1082196671 71.9329626021 76.7320373529
521 29 2 92.1141068118 71.8692305663 76.9719942049
522 29 2 93.1444757951 71.9770856426 76.9594621671
523 30 1 53.7848885619 36.6213638851 111.861795452
524 30 1 56.2329212618 36.3703898088 116.807716901
525 30 2 53.7103929809 37.1338258921 111.663768465
526 30 2 53.4772408182 38.1308809538 111.505745416
527 30 2 53.154732613 39.1063059225 111.639852087
528 30 2 52.7884389025 39.9799242525 112.059458977
529 30 2 52.4279211556 40.6808388014 112.731914002
530 30 2 52.1222143776 41.1538939148 113.601518646
531 30 2 51.9153577005 41.3647027168 114.594604733
532 30 2 51.8423803337 41.3027813818 115.626249082
533 30 2 51.9261087454 40.9825047073 116.608014031
534 30 2 52.1750860909 40.4417958895 117.456008293
535 30 2 52.5827935268 39.7386699253 118.098533418
536 30 2 53.1282443863 38.9459457003 118.482618921
537 30 2 53.7778970577 38.1446087422 118.578850399
538 30 2 54.4887122125 37.4164296062 118.384050572
539 30 2 55.2120757255 36.8365107077 117.921568885
540 30 2 55.8982297221 36.4664409375 117.239153272
541 31 1 107.301499725 9.45551521344 5.09231138225
542 31 1 105.391983017 5.56461054063 8.51759937469
543 31 2 107.073719271 9.95670688608 5.15792052672
544 31 2 106.445962635 10.7735639708 5.26799377741
545 31 2 105.60521943 11.3705382105 5.36910081256
546 31 2 104.626300377 11.6942017729 5.47112725912
547 31 2 103.596610552 11.7160383635 5.58387494212
548 31 2 102.608182656 11.4350424095 5.71616847455
549 31 2 101.749288472 10.8778107153 5.87505091747
550 31 2 101.096393133 10.0961182345 6.06514182383
551 31 2 100.707185527 9.16219892168 6.28821617851
552 31 2 100.61532011 8.16216180006 6.54304261327
553 31 2 100.827349394 7.18814235458 6.82549564261
554 31 2 101.322126699 6.3299046285 7.12893169081
555 31 2 102.052733619 5.6666594708 7.44479463601
556 31 2 102.95075651 5.25984467904 7.76339567796
557 31 2 103.932522209 5.14752510828 8.07479644617
558 31 2 104.906724619 5.34092316132 8.36971485586
559 32 1 86.0169569375 36.4429576612 77.3965438064
560 32 1 87.3675763419 34.4266894723 82.3592528324
561 32 2 85.5408213014 36.2503026368 77.1878323174
562 32 2 84.7439309325 35.6806395854 76.8503419338
563 32 2 84.1220603641 34.884242859 76.6212584086
564 32 2 83.7208705951 33.9327042858 76.5371684321
565 32 2 83.5659081591 32.9117564589 76.6214429203
566 32 2 83.6602766266 31.9134584392 76.8821068179
567 32 2 83.9843537225 31.0278048185 77.3111076468
568 32 2 84.4975798443 30.3345229523 77.8850494671
569 32 2 85.1421549612 29.8958060252 78.5673253553
570 32 2 85.8483069328 29.7506443077 79.311454027
571 32 2 86.5406510527 29.9112712979 80.0653164819
572 32 2 87.1450611635 30.36204867 80.7759065113
573 32 2 87.5954260575 31.0608916669 81.3941620727
574 32 2 87.8396753369 31.9431050125 81.8794371632
575 32 2 87.8445254914 32.9272797137 82.2032065947
576 32 2 87.5985136008 33.9227132722 82.3516659881
577 33 1 14.5366903045 57.5389006424 10.4223052171
578 33 1 12.7889972307 55.6847567112 15.3239080431
579 33 2 14.4021707813 58.0649099443 10.3100541584
580 33 2 13.9348600845 58.9776394348 10.1617450179
581 33 2 13.2270941075 59.733105884 10.1194629071
582 33 2 12.3455183609 60.2707729928 10.2042467174
583 33 2 11.3726206517 60.5499562893 10.4255536208
584 33 2 10.3992125394 60.5535314107 10.7803970743
585 33 2 9.51615210537 60.2894949424 11.2536190354
586 33 2 8.80606248178 59.7902355511 11.819271577
587 33 2 8.33580097359 59.1095818441 12.4429819716
588 33 2 8.15036519409 58.3178960359 13.0850856735
589 33 2 8.26879165266 57.4956606202 13.7042416363
590 33 2 8.68242062784 56.7261426058 14.2612004387
591 33 2 9.35568547779 56.0878039512 14.7223817642
592 33 2 10.2293544446 55.6471499668 15.0629351575
593 33 2 11.2259294708 55.452667534 15.2690050768
594 33 2 12.2567099401 55.5304056549 15.3389937895