LAMMPS input file for bananas

648 atoms

2 atom types

0 42.5063427673 xlo xhi
0 42.5063427673 ylo yhi
0 42.5063427673 zlo zhi

Masses

 1 1
 2 1

Atoms

1 1 1 34.8228504406 7.11772503674 35.7081549851
2 1 1 30.1899509084 4.21539172012 36.5023176294
3 1 2 34.9092576227 7.5246835097 36.0746248859
4 1 2 34.8496539477 8.34455442852 36.7052666936
5 1 2 34.5031627436 9.16874556461 37.2288149987
6 1 2 33.8951587055 9.9140824322 37.6138527303
7 1 2 33.0748527247 10.5045779013 37.8415876856
8 1 2 32.1108064468 10.8783582217 37.9075653899
9 1 2 31.0846830616 10.9933026494 37.8220751093
10 1 2 30.0838039212 10.8308826407 37.609212012
11 1 2 29.1931894322 10.3978506785 37.304680958
12 1 2 28.487809673 9.72562480234 36.9525420964
13 1 2 28.0257510714 8.86742493743 36.601194901
14 1 2 27.8429219821 7.89342204112 36.298966687
15 1 2 27.9497797361 6.88434220757 36.0897077061
16 1 2 28.3303774828 5.92410869996 36.0087943126
17 1 2 28.943817703 5.09219256947 36.0799045037
18 1 2 29.7279799083 4.45636908127 36.312859733
19 2 1 21.0108102442 22.1744296931 0.889868869832
20 2 1 21.0246317754 27.4907471273 2.3913910857
21 2 2 20.5079090238 21.9568927607 0.80531336326
22 2 2 19.5219739439 21.6429721175 0.858566149281
23 2 2 18.5476240604 21.4865648739 1.17420690981
24 2 2 17.6644506152 21.5165567089 1.71509060037
25 2 2 16.9437343617 21.7448435239 2.42354188542
26 2 2 16.4419485146 22.1652471628 3.22661209106
27 2 2 16.195611367 22.7540785345 4.04272828169
28 2 2 16.2179577459 23.4722968102 4.789128415
29 2 2 16.497732693 24.2690678906 5.38940488102
30 2 2 17.0002173239 25.0863977982 5.78046885148
31 2 2 17.670393362 25.8644186734 5.91830065788
32 2 2 18.437957907 26.5468455698 5.78196206669
33 2 2 19.2237313565 27.0861066768 5.37550474328
34 2 2 19.9468744152 27.4476793626 4.72760095355
35 2 2 20.5322563804 27.6132368202 3.88893016342
36 2 2 20.917303105 27.5823185069 2.92755974107
37 3 1 12.6527644188 27.4236904849 37.8102904298
38 3 1 9.14002390175 24.2322469399 40.6375387776
39 3 2 12.5749673596 27.969051532 37.8728246918
40 3 2 12.2062478077 28.9350761865 37.9383401103
41 3 2 11.5738754665 29.7557261126 37.9477704862
42 3 2 10.7308832438 30.3573730305 37.9188722184
43 3 2 9.74950148689 30.6863501993 37.872895259
44 3 2 8.71457437906 30.713843997 37.8326462373
45 3 2 7.71582661925 30.4385202048 37.8204096965
46 3 2 6.83968525553 29.8866456183 37.8559169168
47 3 2 6.16140209067 29.1096938985 37.9545474624
48 3 2 5.73819468144 28.1796538856 38.125927375
49 3 2 5.60403111124 27.1824680087 38.373051786
50 3 2 5.76653389009 26.2101988628 38.6920119181
51 3 2 6.20628518322 25.3526379494 39.0723513602
52 3 2 6.87859669478 24.6891214213 39.4980191409
53 3 2 7.71758288662 24.2812988043 39.9488327323
54 3 2 8.64216626896 24.1675138074 40.4023176326
55 4 1 27.9355739124 32.0303030975 37.8889870367
56 4 1 25.5573451263 34.0785974065 33.3429437762
57 4 2 27.5834049907 31.8230504614 38.2636935665
58 4 2 26.8161979281 31.6422986729 38.9361310173
59 4 2 25.9581487372 31.7365902643 39.5091150423
60 4 2 25.0743278554 32.0889326277 39.9191949359
61 4 2 24.2321547411 32.658812517 40.1177682688
62 4 2 23.4952527698 33.3858887221 40.0755108691
63 4 2 22.9176501336 34.1954920088 39.7850496427
64 4 2 22.5388553163 35.0054310201 39.2616346109
65 4 2 22.380256 35.7334837985 38.5417489117
66 4 2 22.4431696356 36.3048920978 37.6797834593
67 4 2 22.7087233606 36.6591753974 36.7430793577
68 4 2 23.1395742097 36.7556435401 35.805789939
69 4 2 23.6833128267 36.5771055312 34.9421218853
70 4 2 24.2772404372 36.1314364517 34.2195714883
71 4 2 24.8540836738 35.4508596655 33.6927725421
72 4 2 25.3481263645 34.5890097465 33.3985166196
73 5 1 22.3466634116 30.9176149905 30.9909798638
74 5 1 17.9055129493 28.9955188356 28.3264498858
75 5 2 22.3834829965 31.4702793365 31.0152291281
76 5 2 22.4154136376 32.4889144116 30.8286466286
77 5 2 22.3815144344 33.4116802301 30.3587486615
78 5 2 22.2665087409 34.1594911617 29.6509333521
79 5 2 22.0625125509 34.6692082466 28.7722843556
80 5 2 21.7697531043 34.8993941425 27.8054563611
81 5 2 21.3965481745 34.8340900282 26.8411413378
82 5 2 20.9585479256 34.4842702068 25.9698022042
83 5 2 20.477308442 33.886841828 25.273427375
84 5 2 19.9783269487 33.1012808994 24.8180577362
85 5 2 19.4887178074 32.2042112079 24.6477671947
86 5 2 19.0347411151 31.282420266 24.78064546
87 5 2 18.6394091662 30.424948862 25.2071492147
88 5 2 18.3203889435 29.7149752306 25.8909719631
89 5 2 18.08839182 29.2222335782 26.772353271
90 5 2 17.9461972458 28.9966579975 27.7735257695
91 6 1 17.7586010016 28.2107021132 4.24818176531
92 6 1 13.6906180276 30.3478552015 7.31446326927
93 6 2 17.9938135806 28.5649905342 3.89246228948
94 6 2 18.2107147865 29.2707861918 3.16564981865
95 6 2 18.1219606365 29.990263953 2.42543061924
96 6 2 17.7359168455 30.6740784755 1.74954756623
97 6 2 17.0880462846 31.2761350261 1.20987946685
98 6 2 16.2376766354 31.7577908919 0.86588949934
99 6 2 15.2625928299 32.0913775608 0.759205303236
100 6 2 14.2519471622 32.2627226324 0.909824731275
101 6 2 13.2981332952 32.2724415939 1.31429309856
102 6 2 12.488364825 32.1358817206 1.94601806787
103 6 2 11.8967259947 31.8817232128 2.7576934701
104 6 2 11.5774191139 31.5493650718 3.68561113515
105 6 2 11.5598241626 31.1853339866 4.65546772137
106 6 2 11.8458208852 30.8390435502 5.58913726653
107 6 2 12.4096174561 30.5582903431 6.41179216045
108 6 2 13.2001013363 30.3848974025 7.05872348173
109 7 1 4.17636552272 12.3380577646 15.6237235972
110 7 1 6.00258451466 11.9881452626 20.8256921184
111 7 2 4.48904220783 12.647988816 15.2867404789
112 7 2 5.05482524961 13.3858458705 14.8296775424
113 7 2 5.56612765614 14.2663629944 14.6380804266
114 7 2 5.99406522936 15.2048975675 14.7354061675
115 7 2 6.31735225296 16.1115188339 15.1187772551
116 7 2 6.52424162851 16.8992048507 15.7592439103
117 7 2 6.61359559212 17.4917743049 16.6044227803
118 7 2 6.59498941851 17.8308302367 17.5832715411
119 7 2 6.48783866041 17.8810827663 18.6125642155
120 7 2 6.31962947272 17.6335656722 19.6044769981
121 7 2 6.12341332303 17.106453638 20.4745931612
122 7 2 5.93479443865 16.343405679 21.1495974129
123 7 2 5.78868457647 15.4095857393 21.573958391
124 7 2 5.71612090961 14.3857231729 21.7149901975
125 7 2 5.74143707208 13.3607544781 21.5658316311
126 7 2 5.88004521302 12.4237169743 21.1460715677
127 8 1 20.1118565486 24.9946160959 8.87363277463
128 8 1 15.6093754543 27.0389524052 6.41063782716
129 8 2 20.4064879815 25.3631129342 9.16480967431
130 8 2 20.9431438136 26.1787688219 9.51144493205
131 8 2 21.4069793505 27.1026042958 9.58097638489
132 8 2 21.7418581079 28.0611663664 9.37490604262
133 8 2 21.9033976671 28.9778368074 8.91985628203
134 8 2 21.8630150144 29.7798157027 8.26514328841
135 8 2 21.6105318056 30.4047569641 7.47828201711
136 8 2 21.1551020956 30.8064510105 6.63883238577
137 8 2 20.5243779704 30.9590366477 5.83114760051
138 8 2 19.7619891333 30.8593582473 5.13668558662
139 8 2 18.9235661743 30.5272533737 4.6265843164
140 8 2 18.0716699903 30.003744643 4.35517777311
141 8 2 17.2700895268 29.3473006213 4.35504355363
142 8 2 16.5780275856 28.6285065712 4.63403350757
143 8 2 16.0447046482 27.9236307939 5.17455806218
144 8 2 15.70487256 27.3076729769 5.93518946487
145 9 1 39.1287273382 23.7678353141 40.1858744549
146 9 1 36.6800016617 18.816794126 40.2803454936
147 9 2 38.8135437787 24.1806540199 39.9919114997
148 9 2 38.1872263691 24.8037797288 39.4507175746
149 9 2 37.5483161569 25.1809187607 38.727523339
150 9 2 36.937837055 25.273203664 37.8955084509
151 9 2 36.3942215567 25.0677306797 37.0377712803
152 9 2 35.9498077164 24.5787358842 36.2397547142
153 9 2 35.6278916227 23.8462976093 35.5814582663
154 9 2 35.4406040219 22.9326834094 35.1301463348
155 9 2 35.3878046329 21.91667454 34.9342172327
156 9 2 35.4570949338 20.8863852573 35.0187918104
157 9 2 35.6249482536 19.9312314387 35.3834237578
158 9 2 35.8588541655 19.1337805651 36.0021402839
159 9 2 36.1202817258 18.5622259154 36.8258094678
160 9 2 36.3681914657 18.2641709315 37.7866185011
161 9 2 36.5627760298 18.2622902916 38.8042546452
162 9 2 36.66908851 18.5522631743 39.793225522
163 10 1 20.4966512531 15.7123417876 25.2015995861
164 10 1 22.2478143636 19.7761734527 28.5086664163
165 10 2 20.6642740312 15.2042609337 25.3469888506
166 10 2 21.1896690054 14.356124991 25.6264088838
167 10 2 21.946863301 13.7081070739 25.9095688899
168 10 2 22.8657739473 13.3201497545 26.1898229774
169 10 2 23.8615779606 13.2284917767 26.4607901218
170 10 2 24.8424437323 13.442364991 26.7169357783
171 10 2 25.7179012344 13.9431528967 26.9540763414
172 10 2 26.4070881212 14.6860874857 27.1697604689
173 10 2 26.8461201155 15.6043297267 27.3634925154
174 10 2 26.9939138901 16.6150617649 27.5367777091
175 10 2 26.8359317031 17.6270355474 27.6929849539
176 10 2 26.3855064742 18.5488898397 27.8370397635
177 10 2 25.6826265246 19.2974775579 27.9749753132
178 10 2 24.7902907489 19.8054444033 28.1133825328
179 10 2 23.7887664335 20.0273680267 28.2588093605
180 10 2 22.7682731085 19.9438981539 28.417163916
181 11 1 23.4516860117 26.1332052361 14.9258707907
182 11 1 20.2268858701 29.9605041346 17.2647675924
183 11 2 23.9764712344 26.2903677819 14.8405362003
184 11 2 24.8565008626 26.771698577 14.5810780527
185 11 2 25.5384850233 27.4662522182 14.2261937683
186 11 2 25.963837751 28.3210998807 13.8239991113
187 11 2 26.0973643497 29.268702368 13.4269220599
188 11 2 25.9304692949 30.2330661291 13.0869241364
189 11 2 25.4819396932 31.136669868 12.8507642529
190 11 2 24.7962328868 31.907530402 12.7557367618
191 11 2 23.9394242869 32.4857637369 12.8262721752
192 11 2 22.9931847752 32.8290433329 13.0717103889
193 11 2 22.0473366225 32.9164580554 13.485449376
194 11 2 21.1916664279 32.7504181691 14.0455469439
195 11 2 20.507741311 32.3564356491 14.7167207064
196 11 2 20.0614742862 31.7807988322 15.4535639792
197 11 2 19.8971164683 31.0863533587 16.2046844778
198 11 2 20.0332237013 30.3467739607 16.9173885863
199 12 1 35.6683044895 30.032022192 34.0898237979
200 12 1 34.5757461976 26.1957736405 37.9118003142
201 12 2 35.6013378365 30.5558041231 34.2587899014
202 12 2 35.2667973461 31.456059498 34.6474709164
203 12 2 34.6933323024 32.1815444178 35.114653414
204 12 2 33.9397655709 32.6652776936 35.6357957268
205 12 2 33.0813358046 32.8623131528 36.1814378946
206 12 2 32.202839642 32.7538363626 36.719886861
207 12 2 31.3909027198 32.348879515 37.2201052105
208 12 2 30.726083978 31.683498167 37.6545401462
209 12 2 30.2755329276 30.8174848725 38.0016348536
210 12 2 30.0868691521 29.8289192513 38.2477933466
211 12 2 30.1838419101 28.8070512402 38.3886197051
212 12 2 30.5641654535 27.8441661997 38.4293187516
213 12 2 31.1997273673 27.0271733504 38.3842216456
214 12 2 32.0391509415 26.4296842293 38.2754796364
215 12 2 33.0124780203 26.1053031955 38.1310450363
216 12 2 34.0375455017 26.0827415359 37.9821234417
217 13 1 38.845635524 6.34462409733 10.9055205489
218 13 1 33.5361156976 6.70058199052 12.3888560647
219 13 2 39.1582244899 6.7790540198 11.0502284233
220 13 2 39.569977633 7.71466413795 11.2191753593
221 13 2 39.7193017508 8.73919810963 11.2576780851
222 13 2 39.5854560699 9.76361428745 11.1795318153
223 13 2 39.1735099869 10.6988817607 11.0091640088
224 13 2 38.5138810071 11.4640952846 10.7794078708
225 13 2 37.6595622695 11.9938495776 10.5285096946
226 13 2 36.6812923645 12.2442008377 10.2966428134
227 13 2 35.6611076997 12.1966721023 10.1222459089
228 13 2 34.6848651014 11.8599373745 10.038519428
229 13 2 33.8344161939 11.2690310105 10.0703994508
230 13 2 33.1801468427 10.4821544318 10.2322848337
231 13 2 32.7745616711 9.57537122131 10.5267247918
232 13 2 32.6474984042 8.63567413081 10.9441865451
233 13 2 32.8034082397 7.75305592432 11.4639242058
234 13 2 33.2209501337 7.01230677812 12.0558697103
235 14 1 31.0809460428 33.4103667373 9.35532115413
236 14 1 27.9983808879 28.8331398312 9.60983437232
237 14 2 30.8078493377 33.8818925599 9.45761082297
238 14 2 30.1467194647 34.6789962391 9.48896408011
239 14 2 29.3332184562 35.2986648975 9.32260039961
240 14 2 28.4295416308 35.6790316952 8.98772832618
241 14 2 27.5061035916 35.7800415174 8.52891549418
242 14 2 26.6351201237 35.5871018909 8.00202640683
243 14 2 25.8840259182 35.1124130491 7.46913053609
244 14 2 25.3093280802 34.3938559134 6.99284485616
245 14 2 24.9514556575 33.4915393483 6.63062647365
246 14 2 24.8310746409 32.4823213992 6.42953556591
247 14 2 24.9472043141 31.4528038868 6.4219459716
248 14 2 25.2773066437 30.491438883 6.62259440184
249 14 2 25.7793405606 29.6804665404 7.02723722839
250 14 2 26.3955938909 29.0884191227 7.61303727903
251 14 2 27.0579436665 28.7638744718 8.34064538473
252 14 2 27.6940653516 28.7310282672 9.15778695128
253 15 1 41.0016686834 25.3117123742 38.6105937757
254 15 1 37.8877671957 21.4463722293 41.0356204045
255 15 2 40.9333036565 25.8249661755 38.8087814307
256 15 2 40.5773471756 26.7377502079 39.1457833669
257 15 2 39.9525103965 27.5143936386 39.4283678538
258 15 2 39.1136268341 28.0807760668 39.6495811557
259 15 2 38.1350397955 28.3819418202 39.8080633564
260 15 2 37.103826186 28.3871090173 39.9081723119
261 15 2 36.1118596826 28.0924752542 39.9595864436
262 15 2 35.2474366932 27.521564183 39.9764225756
263 15 2 34.5872283754 26.7230813941 39.9759492246
264 15 2 34.1892922651 25.7664750317 39.9770126203
265 15 2 34.0877804878 24.7356057812 39.9983189219
266 15 2 34.2898268832 23.7211031915 40.0567292022
267 15 2 34.7748967747 22.8121050343 40.165722605
268 15 2 35.4966586507 22.0881326344 40.3341677582
269 15 2 36.3872071578 21.6118427131 40.5655144211
270 15 2 37.3632524924 21.4233163958 40.8574790489
271 16 1 39.8664533887 10.7801656732 30.2791694251
272 16 1 34.4880783293 9.74834598994 29.5536207201
273 16 2 40.0175183491 10.8741113665 30.8042743408
274 16 2 40.12071058 11.202122352 31.7816228805
275 16 2 39.9743043459 11.6907219796 32.683446383
276 16 2 39.5806729815 12.2828017606 33.4370682332
277 16 2 38.9647237312 12.9118212667 33.9833200004
278 16 2 38.1716275206 13.5078731124 34.2819344828
279 16 2 37.2627017473 14.0040548265 34.3152159553
280 16 2 36.3098213639 14.3425668332 34.0896530873
281 16 2 35.3888676683 14.4799807292 33.6353275181
282 16 2 34.5728119259 14.3911976665 33.0031719958
283 16 2 33.9250642344 14.0717360452 32.2603279934
284 16 2 33.4936938623 13.5381399996 31.4840259431
285 16 2 33.3070478637 12.8264714444 30.7545458886
286 16 2 33.3711673203 11.9890231276 30.1479001739
287 16 2 33.6692367127 11.0895522863 29.7289051212
288 16 2 34.1631166101 10.1974693449 29.5452731966
289 17 1 8.31257119565 33.5471325724 21.684723152
290 17 1 6.17244974208 29.8053555803 25.139716085
291 17 2 8.10639907687 34.0590358804 21.7379175945
292 17 2 7.51410191974 34.9048273188 21.8231873526
293 17 2 6.69936032572 35.5403146432 21.8993582567
294 17 2 5.73433560197 35.908972271 21.9785343084
295 17 2 4.70488696125 35.9785954333 22.072545598
296 17 2 3.70274568416 35.7442355533 22.1918700236
297 17 2 2.8171540581 35.228651296 22.3446782587
298 17 2 2.12673118126 34.4802341771 22.5360890169
299 17 2 1.69230704202 33.5685978048 22.7677024951
300 17 2 1.55137802803 32.5782327865 23.0374545196
301 17 2 1.71468923072 31.600805635 23.3398046903
302 17 2 2.16525505892 30.7268036111 23.6662413731
303 17 2 2.85990743014 30.0372870518 24.0060575127
304 17 2 3.73323042584 29.5965009369 24.3473265521
305 17 2 4.70352277764 29.4460191312 24.6779895065
306 17 2 5.6802447195 29.6009550374 24.986954107
307 18 1 23.5956130936 6.5109443965 12.8232995114
308 18 1 28.6612312341 4.53349419957 13.7965387599
309 18 2 23.5376021069 7.05596995719 12.9067468102
310 18 2 23.5303682616 8.0264200218 13.2695475196
311 18 2 23.6689216818 8.862393685 13.8657026968
312 18 2 23.9573780636 9.49444806561 14.6343054466
313 18 2 24.3861898489 9.87172698005 15.4987307382
314 18 2 24.9330164596 9.96659634748 16.3736195723
315 18 2 25.5647605817 9.7771629625 17.1726592259
316 18 2 26.2405848971 9.32744705569 17.8164504258
317 18 2 26.9156342958 8.66519291384 18.2397443806
318 18 2 27.5451242994 7.85751711579 18.3973900332
319 18 2 28.0884230466 6.98479103565 18.2684494596
320 18 2 28.5127547787 6.13331520691 17.858106304
321 18 2 28.7961872627 5.38745325943 17.1971933041
322 18 2 28.9296308551 4.82194240004 16.3393819689
323 18 2 28.9176669993 4.49508131599 15.3562905647
324 18 2 28.7781306387 4.44341640531 14.330956301
325 19 1 8.95524481345 36.5922327751 4.29768976217
326 19 1 9.06634898661 32.1971680586 7.64269395672
327 19 2 8.4558390287 36.8242663621 4.2333790731
328 19 2 7.4555780962 37.0371263246 4.06719028145
329 19 2 6.44263437644 36.945603411 3.86965904834
330 19 2 5.50202193248 36.5565216298 3.67649173997
331 19 2 4.71216202495 35.9038266851 3.52299696246
332 19 2 4.13773522369 35.0454919159 3.44086727679
333 19 2 3.82378594671 34.058234182 3.45529050657
334 19 2 3.79161678187 33.0305213267 3.58265393521
335 19 2 4.03684681296 32.0545085693 3.82905064886
336 19 2 4.52981092847 31.2176388037 4.1897241679
337 19 2 5.21826371723 30.5946724117 4.64950198733
338 19 2 6.032141498 30.2408730544 5.18417851005
339 19 2 6.88994843675 30.1869705372 5.76272132234
340 19 2 7.70618467412 30.43635987 6.35009971542
341 19 2 8.39913940906 30.9647918212 6.91047764097
342 19 2 8.89833861997 31.7225831704 7.41048007108
343 20 1 41.9140670912 37.6904887985 38.1266160109
344 20 1 39.1143537651 34.3250604488 41.4961097971
345 20 2 41.8619183884 38.2307045076 38.2398815771
346 20 2 41.5344961236 39.1907257041 38.4510781064
347 20 2 40.935330887 40.0095164007 38.6609181064
348 20 2 40.1189570775 40.6124113817 38.8694881337
349 20 2 39.159707075 40.9444237488 39.0769904999
350 20 2 38.1449360423 40.9752568299 39.2837248306
351 20 2 37.1670597359 40.7020656398 39.4900607563
352 20 2 36.3151310565 40.1497161933 39.6964042206
353 20 2 35.6667231152 39.3685190338 39.9031604802
354 20 2 35.2808586519 38.4296435624 40.1106971666
355 20 2 35.1926302701 37.4186311365 40.3193107775
356 20 2 35.41000184 36.4275982046 40.5291996516
357 20 2 35.9130826132 35.5468401372 40.7404458911
358 20 2 36.6559402106 34.8566010461 40.9530078777
359 20 2 37.5707872369 34.4197597473 41.1667240665
360 20 2 38.5741599198 34.2760985254 41.3813277099
361 21 1 20.6662276985 8.85014663549 6.28364135378
362 21 1 20.424521112 3.33186391451 6.19350368792
363 21 2 20.3725365994 9.09024858559 6.68796570365
364 21 2 19.6507739691 9.401245618 7.36308759083
365 21 2 18.7652693956 9.4986282311 7.8920944793
366 21 2 17.799552554 9.36136599879 8.24137956732
367 21 2 16.8444642536 8.98981574545 8.39371721491
368 21 2 15.9898765404 8.40568902242 8.34983301487
369 21 2 15.3165011004 7.65007315807 8.12833765697
370 21 2 14.8885326055 6.77968625763 7.7640306133
371 21 2 14.7477975402 5.86170749955 7.30472825942
372 21 2 14.9099418297 4.96765393287 6.80690553951
373 21 2 15.3630047556 4.16686188941 6.33054842614
374 21 2 16.0685091433 3.52016716238 5.93368635924
375 21 2 16.9649684537 3.07435998649 5.66710301771
376 21 2 17.9734911168 2.85792023309 5.56970752284
377 21 2 19.0049712875 2.878421546 5.66498797591
378 21 2 19.9682106054 3.12184102413 5.95887058051
379 22 1 1.34463841291 31.2610552146 23.0115895212
380 22 1 5.10288100801 27.384977854 24.1819005704
381 22 2 1.55419838619 31.7547779976 22.8712185158
382 22 2 2.07151160639 32.6500791003 22.8058504892
383 22 2 2.7230770269 33.4338000205 22.9921138331
384 22 2 3.46482127045 34.0294198031 23.4026044699
385 22 2 4.24445140106 34.3775624091 23.9894806037
386 22 2 5.00622128541 34.4414086826 24.6888233722
387 22 2 5.6960127039 34.2100523185 25.4264628797
388 22 2 6.26626808171 33.6994939433 26.1247385851
389 22 2 6.68032523462 32.9511827004 26.7095778527
390 22 2 6.91575902914 32.0282382716 27.1172474751
391 22 2 6.96642537349 31.009697687 27.3001627842
392 22 2 6.84302123511 29.9833113108 27.231224867
393 22 2 6.57210964071 29.0375446299 26.9062905591
394 22 2 6.19369852736 28.2535148616 26.3445500825
395 22 2 5.75759412595 27.6975973361 25.586777909
396 22 2 5.31886125638 27.415375562 24.6916162752
397 23 1 31.5270331782 13.0294303123 14.0018069727
398 23 1 36.9925786325 12.2258794494 14.0122930839
399 23 2 31.3344255929 13.3307741586 14.4254528064
400 23 2 31.1000403746 13.7429268069 15.3466714423
401 23 2 31.058807422 13.9374854008 16.3634786061
402 23 2 31.2283238209 13.9098897358 17.3852186322
403 23 2 31.6069774171 13.6758283749 18.3207862378
404 23 2 32.1740937596 13.2698086769 19.0869305258
405 23 2 32.8918205221 12.7420115437 19.6158430818
406 23 2 33.7085776407 12.153717565 19.8613385296
407 23 2 34.5637586996 11.571721456 19.803064205
408 23 2 35.3932550432 11.0622438981 19.4483552466
409 23 2 36.1352991093 10.6848957007 18.8315660176
410 23 2 36.7360943769 10.4872444348 18.0109387973
411 23 2 37.1547187756 10.5004787767 17.0632951532
412 23 2 37.3668546227 10.7365657431 16.0770338603
413 23 2 37.367005115 11.1871599295 15.1440735891
414 23 2 37.1689953481 11.8243641718 14.3514747643
415 24 1 40.1328788635 25.4111122599 32.0554165117
416 24 1 37.1792259348 21.103058436 33.8539152438
417 24 2 40.0294967207 25.8899303341 32.315083553
418 24 2 39.6121855036 26.730955122 32.7532372537
419 24 2 38.9359258593 27.429877226 33.1104917809
420 24 2 38.0599020126 27.9171410941 33.3724195459
421 24 2 37.0615061614 28.1424832567 33.5332817396
422 24 2 36.0292843849 28.0795137077 33.5965514096
423 24 2 35.0548659048 27.7281212828 33.5745969011
424 24 2 34.2246113267 27.1144837921 33.4875545155
425 24 2 33.6117411023 26.2886819825 33.3614931401
426 24 2 33.26966168 25.3201348114 33.226038139
427 24 2 33.2270976506 24.2912720944 33.11167108
428 24 2 33.4854735774 23.290021248 33.0469514215
429 24 2 34.0187841509 22.4017929404 33.055913394
430 24 2 34.7759645034 21.7016961375 33.1558753441
431 24 2 35.6855446354 21.2476921214 33.355861214
432 24 2 36.6621637145 21.0753114743 33.6557780325
433 25 1 7.72731650332 18.6271924135 32.310044366
434 25 1 9.8344787067 22.7897018973 29.3517723523
435 25 2 7.19405660937 18.5147523644 32.2081978692
436 25 2 6.17026520814 18.5359857897 32.0505580278
437 25 2 5.19250667899 18.8574762989 31.9318899094
438 25 2 4.34892647818 19.4525375902 31.844000686
439 25 2 3.71544006598 20.2695481161 31.7758921156
440 25 2 3.34881341537 21.2366562495 31.7147630025
441 25 2 3.28148894529 22.2683293678 31.6471759921
442 25 2 3.5186284809 23.2731499223 31.5602823499
443 25 2 4.03764276702 24.1621479039 31.4429930894
444 25 2 4.79025041832 24.8569102215 31.2869897033
445 25 2 5.70687863858 25.2967278454 31.0874823734
446 25 2 6.70300459512 25.4441292736 30.8436465498
447 25 2 7.68685944906 25.2882959586 30.5586981063
448 25 2 8.56779283974 24.8460483892 30.239600222
449 25 2 9.26453542279 24.1603129482 29.8964287064
450 25 2 9.71260635364 23.296209287 29.5414536161
451 26 1 5.29818380285 21.7103691202 25.9356261981
452 26 1 1.23072667332 21.5599700797 29.6707518572
453 26 2 5.27613863312 21.3125235656 25.5501206685
454 26 2 5.21231433669 20.4270877527 25.0159110735
455 26 2 5.10835733218 19.4277164234 24.7631267808
456 26 2 4.95484306941 18.4042253426 24.8115972852
457 26 2 4.74686400983 17.4486287259 25.1536935115
458 26 2 4.48447693556 16.64675239 25.7550231851
459 26 2 4.17269777383 16.0704109589 26.5575655954
460 26 2 3.82104440864 15.7708621527 27.4849600286
461 26 2 3.44266915106 15.7741347839 28.4494658427
462 26 2 3.05315994121 16.0786562998 29.3599597927
463 26 2 2.66911954922 16.6553961175 30.1302416705
464 26 2 2.30665227709 17.4505116832 30.6868912235
465 26 2 1.9798960946 18.3902560775 30.9759602149
466 26 2 1.69973400114 19.3876998497 30.9678896606
467 26 2 1.47280206945 20.3506544051 30.6602040519
468 26 2 1.30088458528 21.1900747489 30.0777369918
469 27 1 11.2813148147 24.4507764783 6.72643688194
470 27 1 5.78358791563 24.8904432232 6.41071048385
471 27 2 11.5281446835 24.8312478326 7.04533835957
472 27 2 11.86166534 25.6931040802 7.51375888785
473 27 2 11.9923377909 26.6826527407 7.79155048292
474 27 2 11.8957195222 27.711385947 7.86785848782
475 27 2 11.5680849614 28.6872242654 7.75019293627
476 27 2 11.0267650536 29.5229094899 7.46374403323
477 27 2 10.3085675922 30.1439579945 7.04908613503
478 27 2 9.46642228676 30.4954497164 6.55847950525
479 27 2 8.56455636165 30.5470339731 6.05110693134
480 27 2 7.67264041602 30.295695846 5.58767937175
481 27 2 6.85943813504 29.7660309822 5.22490231434
482 27 2 6.18653866368 29.0080037668 5.0103072227
483 27 2 5.70274292085 28.092393203 4.9779191703
484 27 2 5.43961552602 27.1043415951 5.14515554598
485 27 2 5.40860776853 26.1355940548 5.51123850551
486 27 2 5.60001385318 25.2761361796 6.05726587002
487 28 1 36.7237635684 36.4157765669 5.45336667665
488 28 1 31.2818793904 35.4704504453 5.35214326865
489 28 2 37.0119625728 36.0854227004 5.79276208734
490 28 2 37.3877930234 35.5324177942 6.58420826824
491 28 2 37.5150177351 35.0929884904 7.51381343757
492 28 2 37.3730474495 34.790374019 8.49448613063
493 28 2 36.9658293126 34.6353433041 9.43448021444
494 28 2 36.3214871034 34.6252134044 10.2457573025
495 28 2 35.4897578259 34.7440940569 10.8520112185
496 28 2 34.537458315 34.9643360315 11.1956231003
497 28 2 33.5423950598 35.2490512845 11.2429132051
498 28 2 32.5862723504 35.5554752051 10.9872107281
499 28 2 31.7472451505 35.8388644957 10.4494618286
500 28 2 31.0927954808 36.0565754033 9.67632044327
501 28 2 30.6735816135 36.1719505844 8.73589590497
502 28 2 30.5188207062 36.1576603231 7.71154495866
503 28 2 30.6336257361 35.9981935622 6.69427401714
504 28 2 30.9985394656 35.6912716944 5.77444416969
505 29 1 38.8066671187 36.3566585062 25.1844731973
506 29 1 35.6019989335 32.1894831257 26.8823372176
507 29 2 38.6837513751 36.8504868114 25.4044889083
508 29 2 38.2355217324 37.7194183259 25.7472690442
509 29 2 37.5363243688 38.4447165142 25.9891690155
510 29 2 36.6453742821 38.9554835383 26.1261909157
511 29 2 35.6393642181 39.200375503 26.1638961943
512 29 2 34.6054743322 39.1522823137 26.1168987452
513 29 2 33.633425951 38.8107986897 26.0075328899
514 29 2 32.8073037132 38.2022611043 25.8638176629
515 29 2 32.1978914795 37.3773472854 25.7169029526
516 29 2 31.8562205731 36.4064570766 25.5982302715
517 29 2 31.8089184106 35.3732956789 25.5366669468
518 29 2 32.0557814847 34.367244146 25.5558749403
519 29 2 32.5697939127 33.4752125398 25.6721541241
520 29 2 33.2995898624 32.7737183106 25.8929565908
521 29 2 34.1741354105 32.3219119361 26.2162074151
522 29 2 35.1092030945 32.1561855133 26.6304937779
523 30 1 13.359754934 27.9131662483 8.09584767454
524 30 1 8.31195406174 26.4722864414 9.81676684677
525 30 2 13.4154940344 27.9567033336 7.54595744645
526 30 2 13.4202605671 27.8248555708 6.51831769499
527 30 2 13.2816716405 27.4339239577 5.56888860628
528 30 2 12.9955314939 26.8273367561 4.77918879342
529 30 2 12.5710932659 26.068178658 4.21617797291
530 30 2 12.0302155958 25.2334407852 3.92615376552
531 30 2 11.4053702667 24.4070031537 3.93053179183
532 30 2 10.7366824894 23.6719892348 4.2238936957
533 30 2 10.0682735967 23.1031894726 4.77448101294
534 30 2 9.44423950182 22.7602443353 5.52708987043
535 30 2 8.90463147369 22.6822082455 6.40810267162
536 30 2 8.48180557098 22.8839898744 7.33219814366
537 30 2 8.19747347375 23.3549932556 8.21012814344
538 30 2 8.06072352183 24.06008358 8.95685238723
539 30 2 8.06719233697 24.9427896391 9.49928964528
540 30 2 8.19946253308 25.9304510248 9.78297890058
541 31 1 11.3574671686 6.52064025633 19.6971024795
542 31 1 6.06002854769 6.91627306803 18.1809857963
543 31 2 11.438904051 6.36844041391 20.2239656782
544 31 2 11.4382966504 6.25699781193 21.2540288747
545 31 2 11.2279899089 6.3677061731 22.2624755736
546 31 2 10.8131801519 6.67753083408 23.159911675
547 31 2 10.2177036079 7.14528821299 23.8670613983
548 31 2 9.4818638004 7.71539958285 24.3219930578
549 31 2 8.65875798898 8.32295692395 24.4857639699
550 31 2 7.80943749639 8.8996391164 24.3459699752
551 31 2 6.99734304344 9.37993922757 23.9178760441
552 31 2 6.28252229696 9.70713529395 23.2430249155
553 31 2 5.71615668539 9.8384603765 22.3854505876
554 31 2 5.33589634843 9.74900065283 21.4258417896
555 31 2 5.1624284274 9.43396624553 20.4541874201
556 31 2 5.19759148763 8.90912780671 19.5615742993
557 31 2 5.42420793812 8.20937906517 18.8318848487
558 31 2 5.80764972306 7.38555635634 18.3341514329
559 32 1 39.0118718991 37.6219801874 1.86908786035
560 32 1 36.9597941115 32.845098202 3.73680473195
561 32 2 38.9074700148 38.0622382981 2.18948547351
562 32 2 38.4908236281 38.8066151904 2.77749809406
563 32 2 37.8220503501 39.3834067012 3.3192580656
564 32 2 36.9638550679 39.732550645 3.78299223019
565 32 2 35.9962079784 39.8147343034 4.14403927363
566 32 2 35.0090555179 39.6149776746 4.38709753838
567 32 2 34.0941219852 39.1439988602 4.50761972868
568 32 2 33.3365491169 38.4372371395 4.51222738449
569 32 2 32.8071356456 37.5516227731 4.41810734575
570 32 2 32.5558841848 36.5603879625 4.25144521788
571 32 2 32.607443624 35.5463919303 4.04503862386
572 32 2 32.9588624487 34.5945685236 3.83530778851
573 32 2 33.5798577626 33.7841847208 3.65897593236
574 32 2 34.4155754933 33.1816156587 3.54972204827
575 32 2 35.3915901936 32.8342947155 3.53511115123
576 32 2 36.4206887229 32.7663900861 3.6340818009
577 33 1 17.7769722208 16.9877503117 21.5331970359
578 33 1 16.1866751445 12.9022333336 24.8943720228
579 33 2 18.0740565692 17.3878566373 21.776173179
580 33 2 18.4532188216 18.1344735128 22.3862954936
581 33 2 18.5830454591 18.8112555194 23.1599628452
582 33 2 18.4625534126 19.3464311269 24.0388933015
583 33 2 18.1135754922 19.68113585 24.9552104795
584 33 2 17.5787703848 19.7747775889 25.8376302962
585 33 2 16.9177344285 19.60873649 26.6179583229
586 33 2 16.201569566 19.1880620969 27.2373055243
587 33 2 15.5064025925 18.5410130969 27.6514558372
588 33 2 14.9064464016 17.716481618 27.8348963466
589 33 2 14.4672356787 16.7795368416 27.783142719
590 33 2 14.2396535894 15.8054941207 27.5131479382
591 33 2 14.2552939148 14.8730501869 27.0617570856
592 33 2 14.5235813632 14.0571101535 26.48234901
593 33 2 15.0309125328 13.4219601147 25.8399709876
594 33 2 15.7418958256 13.0154076398 25.2054098371