LAMMPS input file for bananas

648 atoms

2 atom types

0 42.5063427673 xlo xhi
0 42.5063427673 ylo yhi
0 42.5063427673 zlo zhi

Masses

 1 1
 2 1

Atoms

1 1 1 21.539282114 15.8323720509 23.0358720619
2 1 1 20.93712205 20.0626372074 26.5373361878
3 1 2 21.4502805888 15.3317470226 23.256858255
4 1 2 21.4334138612 14.4720677165 23.8348868144
5 1 2 21.5991043499 13.7826481255 24.5903319153
6 1 2 21.9175021662 13.3298411245 25.4661393494
7 1 2 22.3448385568 13.1584329838 26.3942842033
8 1 2 22.8274153082 13.2875612192 27.3019711476
9 1 2 23.306499196 13.7089702596 28.1182695369
10 1 2 23.7236753608 14.3877639192 28.7805785482
11 1 2 24.0261716666 15.2655860925 29.2403330786
12 1 2 24.1716687402 16.2659397566 29.4674303251
13 1 2 24.1321572689 17.3011594711 29.4529735739
14 1 2 23.896490974 18.2804018478 29.2100831126
15 1 2 23.471402565 19.1179256838 28.7727003512
16 1 2 22.8808900708 19.7409070418 28.1924941527
17 1 2 22.1640294834 20.0960769585 27.5341513546
18 1 2 21.3714130859 20.1545767673 26.869480737
19 2 1 34.1276814483 30.4513078465 7.81130240465
20 2 1 33.523443476 32.3401695175 12.9673754377
21 2 2 33.7564170242 30.6434627537 7.44713100666
22 2 2 32.9073608271 30.9351594392 6.92995924699
23 2 2 31.9236296316 31.1315065204 6.67078600417
24 2 2 30.892907771 31.2328462628 6.69894117968
25 2 2 29.9071626524 31.2481805975 7.01756545764
26 2 2 29.0542621729 31.1943506181 7.60332403982
27 2 2 28.4099657959 31.0945015608 8.40853355017
28 2 2 28.0310192784 30.9759731779 9.36550824706
29 2 2 27.9499824469 30.8678077921 10.3927293977
30 2 2 28.1722614562 30.7981031665 11.402275493
31 2 2 28.675616033 30.7914514691 12.3078360575
32 2 2 29.4121866172 30.8666977616 13.0325786195
33 2 2 30.3128566331 31.0352223231 13.5161517844
34 2 2 31.2935522802 31.2999033677 13.7201861039
35 2 2 32.2629056358 31.654854703 13.6317913483
36 2 2 33.1305825965 32.085962241 13.2647314163
37 3 1 14.8707451161 23.5508001556 33.7537720942
38 3 1 10.0764206728 21.5892732677 31.8341740993
39 3 2 15.0999876077 23.9503200672 33.4452055563
40 3 2 15.4922785269 24.5448213288 32.6927920424
41 3 2 15.7932755781 24.902964089 31.7683546191
42 3 2 15.9600982821 25.0021005847 30.7506158747
43 3 2 15.9620957928 24.8431907817 29.7268025638
44 3 2 15.7836406398 24.4507148763 28.7846951213
45 3 2 15.4255531308 23.8704419906 28.0046267107
46 3 2 14.9050265827 23.1652584397 27.4521610707
47 3 2 14.2540601965 22.4094358116 27.1721165561
48 3 2 13.5165424159 21.6818613114 27.1844810639
49 3 2 12.7442506128 21.0588474024 27.4825901903
50 3 2 11.9921317184 20.6071761296 28.0337346734
51 3 2 11.3132939572 20.3780121148 28.7821417547
52 3 2 10.7541661741 20.4022390378 29.6540587173
53 3 2 10.3502659696 20.6876446716 30.5644752484
54 3 2 10.1229623653 21.2182110481 31.4248719028
55 4 1 16.6232441844 24.2931209471 26.0270809234
56 4 1 13.4503655457 19.7759341212 26.2412196287
57 4 2 16.4938128539 24.6871421364 26.3950162724
58 4 2 16.0344291564 25.3931830591 26.9982764528
59 4 2 15.3262381857 25.9944974073 27.456901152
60 4 2 14.4292047978 26.4258245341 27.7445433289
61 4 2 13.4205063303 26.6373976731 27.8504405419
62 4 2 12.3874980944 26.5994800471 27.7803959173
63 4 2 11.4197511718 26.3050752947 27.5562492094
64 4 2 10.6008882496 25.7705651711 27.2138861659
65 4 2 10.0009616365 25.0342163938 26.7999676372
66 4 2 9.67006818177 24.1526927346 26.3676765651
67 4 2 9.63378308118 23.1958902675 25.9718704995
68 4 2 9.89082876658 22.2405665287 25.6640814795
69 4 2 10.4131913526 21.3633442722 25.487819026
70 4 2 11.1486740277 20.6337275107 25.4746043644
71 4 2 12.0256546535 20.1077664106 25.6410973501
72 4 2 12.9596139319 19.822948469 25.9875779666
73 5 1 25.8810808745 9.3915654428 4.56404652234
74 5 1 29.2123162812 8.25590756001 0.305978544964
75 5 2 25.6707129188 9.90452172402 4.56570929424
76 5 2 25.5019883913 10.9263770086 4.53753443891
77 5 2 25.6347052327 11.9506221835 4.45532694057
78 5 2 26.0533931721 12.8867909739 4.30788740568
79 5 2 26.7165164372 13.6524450319 4.08996216648
80 5 2 27.5602596293 14.1806879717 3.80272213875
81 5 2 28.504344326 14.4262627964 3.45365609601
82 5 2 29.4593462448 14.3696769522 3.05588808777
83 5 2 30.3348460279 14.0189790228 2.62698121755
84 5 2 31.0476707245 13.4090251224 2.1873368129
85 5 2 31.529474783 12.5983018538 1.75833489895
86 5 2 31.7329695657 11.6635954114 1.36038546622
87 5 2 31.6362335816 10.6929927242 1.01106815459
88 5 2 31.2447105714 9.77785256824 0.723529916076
89 5 2 30.5907133255 9.00447845793 0.50528670529
90 5 2 29.7304784593 8.44625231158 0.357538420288
91 6 1 40.2328064091 6.38697156799 7.81743479224
92 6 1 37.07865494 1.87627856147 7.34523973447
93 6 2 39.9776468539 6.82875205884 8.03447208707
94 6 2 39.3374769272 7.60621186767 8.27775941064
95 6 2 38.5277380966 8.25208847937 8.30258761669
96 6 2 37.6111816519 8.69940617908 8.12015634104
97 6 2 36.6602950229 8.89928736604 7.76055636729
98 6 2 35.7506947441 8.82540761632 7.27002693236
99 6 2 34.9542342094 8.47639508363 6.70674114358
100 6 2 34.3324544274 7.87595553953 6.13550365551
101 6 2 33.9309747231 7.07071165562 5.62184389882
102 6 2 33.7753346581 6.12595347171 5.22604324788
103 6 2 33.868666168 5.11968738316 4.99764053456
104 6 2 34.1914080949 4.13552606642 4.97091671614
105 6 2 34.7030891343 3.2550674071 5.16177025767
106 6 2 35.3460166868 2.55045707075 5.56626802937
107 6 2 36.0505353841 2.07781261827 6.16100380091
108 6 2 36.7413759895 1.87210854026 6.90523165673
109 7 1 20.293912179 17.7991943567 8.23611157649
110 7 1 15.7827859928 20.9809946744 8.44558312939
111 7 2 20.1986222499 17.2552740309 8.2856302265
112 7 2 19.8966312986 16.3049311661 8.56687729913
113 7 2 19.4445699343 15.5148172134 9.06166056042
114 7 2 18.8673295929 14.9549272269 9.71493447125
115 7 2 18.2012114397 14.6742719621 10.4572074934
116 7 2 17.4906176147 14.6964106754 11.2108760575
117 7 2 16.7840040969 15.0173037617 11.897297921
118 7 2 16.1294640706 15.6056809532 12.4439601985
119 7 2 15.5703443606 16.405891521 12.791088717
120 7 2 15.1412944851 17.3429766898 12.8970962728
121 7 2 14.8651084443 18.3295019305 12.742373193
122 7 2 14.7506471086 19.2735263836 12.3310747056
123 7 2 14.7920305736 20.0869830227 11.690742201
124 7 2 14.969174098 20.6937057287 10.8697929084
125 7 2 15.249618774 21.0363716278 9.93310679428
126 7 2 15.5914900697 21.0817259187 8.95611292703
127 8 1 13.4950349737 10.991667218 5.49687956575
128 8 1 17.9309921815 8.32221959994 3.56962137714
129 8 2 13.6023988208 11.4788589301 5.73874487562
130 8 2 13.962248092 12.2643168001 6.31059664629
131 8 2 14.5112725463 12.8306441641 6.98238193679
132 8 2 15.2133936261 13.1331557376 7.68164065027
133 8 2 16.0185784254 13.1512123405 8.33340856082
134 8 2 16.8674000558 12.8901021029 8.86705010226
135 8 2 17.6964542483 12.3805584661 9.22269661126
136 8 2 18.444138483 11.675958912 9.35670319592
137 8 2 19.0562668942 10.8474597479 9.2456268511
138 8 2 19.4910091672 9.9775103993 8.8883632256
139 8 2 19.7227032598 9.1523383654 8.30624728085
140 8 2 19.7441944285 8.45408981277 7.54110866622
141 8 2 19.5674873647 7.95334217189 6.65145905827
142 8 2 19.2226519989 7.70267119302 5.70715897778
143 8 2 18.7550827069 7.73185880707 4.78305019005
144 8 2 18.2213607339 8.04517858222 3.95213407804
145 9 1 5.19441980421 38.20943362 33.2014206167
146 9 1 6.83702746169 34.7766362404 37.2058847876
147 9 2 5.45219883705 38.1415937099 32.7152834911
148 9 2 6.12833296569 38.0261465996 31.9387755285
149 9 2 7.00355487265 37.9185244851 31.3948508046
150 9 2 7.99983757616 37.8094223369 31.1322341503
151 9 2 9.02811972643 37.6896700264 31.1740099178
152 9 2 9.9964233096 37.5510681589 31.5155179036
153 9 2 10.8182371979 37.3871354265 32.1247781135
154 9 2 11.4204024078 37.1936993619 32.9454056539
155 9 2 11.7497803455 36.9692766476 33.901750064
156 9 2 11.7780962483 36.7152083165 34.9057906528
157 9 2 11.504516353 36.4355375202 35.8651593503
158 9 2 10.9557238917 36.1366410066 36.6915598099
159 9 2 10.1834869862 35.8266478962 37.3088153847
160 9 2 9.25994012229 35.5146987349 37.6598124247
161 9 2 8.27100928395 35.2101123572 37.711706034
162 9 2 7.30858002971 34.9215364997 37.4589137948
163 10 1 21.839620345 11.0559751442 15.3170811875
164 10 1 18.7128412505 13.5886375479 11.5319966832
165 10 2 22.3427564451 11.2770523835 15.3902966719
166 10 2 23.29482779 11.6739067543 15.2927427195
167 10 2 24.1826656131 12.0336497238 14.8980542259
168 10 2 24.9216122796 12.3422755896 14.2406670414
169 10 2 25.4405811857 12.5904378367 13.3789613
170 10 2 25.6885361126 12.7743010472 12.3899402258
171 10 2 25.6391430414 12.8958904885 11.3622114953
172 10 2 25.2931704284 12.9629075159 10.3879108845
173 10 2 24.6784191624 12.9880276141 9.55430433897
174 10 2 23.8471885881 12.9877450609 8.9358339163
175 10 2 22.8715095606 12.9808695181 8.58733259154
176 10 2 21.8365790253 12.9868115808 8.53902637799
177 10 2 20.8329945444 13.0238135534 8.79377930692
178 10 2 19.9484965707 13.1072867129 9.32683237878
179 10 2 19.2599711405 13.2484066114 10.0880602798
180 10 2 18.8264419163 13.4530944553 11.0065401704
181 11 1 33.2244526638 8.21991941494 24.2781549039
182 11 1 30.3495890633 3.54610658805 24.9173919481
183 11 2 33.045649219 8.64759306184 24.5823031702
184 11 2 32.5024162532 9.38984130677 25.0591841815
185 11 2 31.7277607081 9.99138804516 25.3931008165
186 11 2 30.7874110678 10.388730161 25.5700522456
187 11 2 29.7621983903 10.5369772437 25.5903445978
188 11 2 28.7406887726 10.4139432293 25.4685630583
189 11 2 27.8111107876 10.0221686007 25.232242468
190 11 2 27.0533136857 9.38868882959 24.919357596
191 11 2 26.531489349 8.56257016527 24.574861841
192 11 2 26.2883213725 7.61043737733 24.2465898493
193 11 2 26.341094569 6.61040108592 23.9808975145
194 11 2 26.6801195043 5.6449381875 23.8184367617
195 11 2 27.2696156632 4.79337430615 23.7904502332
196 11 2 28.0509727481 4.12465347498 23.9159236053
197 11 2 28.9480928505 3.69105407178 24.1998550945
198 11 2 29.8743265726 3.52342378458 24.6327998832
199 12 1 20.9476415597 24.8139992999 40.0021529916
200 12 1 20.5238832206 29.7752803476 42.3946642867
201 12 2 20.9339443322 24.819997982 39.4479346323
202 12 2 20.7155520173 24.9619175771 38.4451317421
203 12 2 20.2733619354 25.2752000299 37.5620847177
204 12 2 19.6577187014 25.7471816004 36.8753046825
205 12 2 18.9347767217 26.3507335481 36.4434135486
206 12 2 18.1804703964 27.0467348443 36.3018007859
207 12 2 17.473592902 27.7876379491 36.4593977666
208 12 2 16.8886144038 28.5218026431 36.8978636945
209 12 2 16.4888942993 29.1982028947 37.5732573196
210 12 2 16.3209061787 29.771077747 38.4200420657
211 12 2 16.4100018812 30.2041023065 39.3570595136
212 12 2 16.7581007426 30.4736986603 40.294926775
213 12 2 17.3435146531 30.5711849392 41.144183503
214 12 2 18.1229248704 30.5035666478 41.8234459641
215 12 2 19.0353304073 30.2928981306 42.2668249479
216 12 2 20.0076081088 29.9742723782 42.4299313925
217 13 1 10.3825620165 34.5130191218 25.2216204276
218 13 1 8.8216209642 30.0101029395 28.0153992212
219 13 2 10.4194486406 34.9753084174 25.5254453314
220 13 2 10.2723988493 35.7781382589 26.1636385747
221 13 2 9.86341209176 36.4317210515 26.8557436076
222 13 2 9.23699401989 36.8697525706 27.5551567892
223 13 2 8.45746856888 37.045575514 28.2146083606
224 13 2 7.60311500225 36.9364321906 28.7904709565
225 13 2 6.75903296628 36.5455388226 29.2467361234
226 13 2 6.00938588468 35.9017923958 29.558296394
227 13 2 5.42972968746 35.0571367765 29.7132337653
228 13 2 5.08012608987 34.081828167 29.7139059931
229 13 2 4.99966812759 33.0580314403 29.5767316886
230 13 2 5.202916931 32.0723310317 29.3306938061
231 13 2 5.67857451707 31.2078389991 29.0146979239
232 13 2 6.3905135703 30.5366195807 28.6740261053
233 13 2 7.28107035099 30.1131207325 28.3562095589
234 13 2 8.27630059101 29.9692113428 28.1066962965
235 14 1 13.3671725568 18.5588328944 37.3787154175
236 14 1 14.5620497854 20.87697524 42.2486718378
237 14 2 13.0143526314 18.8473087757 37.0629918768
238 14 2 12.2250104579 19.3905842858 36.6689859575
239 14 2 11.3353095345 19.9109078286 36.5634128128
240 14 2 10.4319522557 20.3789144365 36.7592838242
241 14 2 9.60288575655 20.7700076906 37.2421345441
242 14 2 8.92928576584 21.0666016188 37.9713430914
243 14 2 8.47815765579 21.25972361 38.8838327275
244 14 2 8.29622908128 21.3498322434 39.8998211325
245 14 2 8.40569087903 21.3467754906 40.9300923504
246 14 2 8.80217443215 21.2688930991 41.8841285847
247 14 2 9.45514985788 21.1413449733 42.6783606541
248 14 2 10.3107087248 20.9938179167 43.2437851
249 14 2 11.2964776624 20.8578197588 43.5322536667
250 14 2 12.328215 20.7638075009 43.5208618869
251 14 2 13.3174891704 20.7384112416 43.2140367625
252 14 2 14.1797390105 20.8020069147 42.643133255
253 15 1 34.5572401565 36.0447753597 13.9998726484
254 15 1 30.0602472992 36.7429642798 10.8681672768
255 15 2 35.0020192427 35.852596402 13.7303909221
256 15 2 35.6823425832 35.3306681524 13.1488403519
257 15 2 36.1114731778 34.647486161 12.49879473
258 15 2 36.2489598714 33.8745408044 11.8227008785
259 15 2 36.0809340711 33.0915041501 11.1653798461
260 15 2 35.6213738311 32.3789680602 10.5699415893
261 15 2 34.9108297908 31.8110984591 10.0738556147
262 15 2 34.0127290921 31.4488753071 9.70553573432
263 15 2 33.007594165 31.3345344404 9.48175022188
264 15 2 31.9857033232 31.4877178876 9.40609342989
265 15 2 31.0388621374 31.9036835508 9.4686581739
266 15 2 30.2520356029 32.5537374357 9.64693874586
267 15 2 29.6956038068 33.3878490323 9.90788224932
268 15 2 29.4189469719 34.3392114619 10.2109012825
269 15 2 29.4459445811 35.3303307459 10.5115733716
270 15 2 29.772798826 36.2800891746 10.7656899606
271 16 1 11.7938888381 18.7537750989 1.98003540861
272 16 1 8.71937169223 22.2401629431 -1.00499979741
273 16 2 11.7524433634 18.8173253319 2.52923958609
274 16 2 11.7167395166 19.162133256 3.50560157941
275 16 2 11.7222317683 19.7754784049 4.34060312111
276 16 2 11.7497320115 20.6054113486 4.96020384473
277 16 2 11.7780461695 21.5802412585 5.30999659268
278 16 2 11.7859059797 22.6150703345 5.36016648324
279 16 2 11.7539075382 23.6195320133 5.10820845728
280 16 2 11.6662799146 24.5060276383 4.57915560778
281 16 2 11.5123226296 25.1977108437 3.82329748025
282 16 2 11.2873809752 25.6354918949 2.91159631511
283 16 2 10.993270279 25.78342356 1.92921902912
284 16 2 10.638110442 25.6319776042 0.967774478564
285 16 2 10.235585831 25.1989132623 0.116963556824
286 16 2 9.80369798556 24.5276585326 -0.543596802274
287 16 2 9.36312482544 23.6833518305 -0.9516304952
288 16 2 8.93533591367 22.7469047962 -1.0678785491
289 17 1 8.20415502816 34.5217989229 6.19684458299
290 17 1 9.26291520266 33.4313171418 11.5079525125
291 17 2 8.40572975396 35.0043634901 6.01277759381
292 17 2 8.67628580895 35.9927566901 5.86004150011
293 17 2 8.80188106644 37.0147473814 5.97498004611
294 17 2 8.78799068251 37.9780484669 6.35617302491
295 17 2 8.65280355666 38.7957222503 6.97793184968
296 17 2 8.42556446222 39.3941045746 7.7926409997
297 17 2 8.14390846341 39.7195191132 8.73509804785
298 17 2 7.85043057986 39.7431698236 9.72845668748
299 17 2 7.58880336438 39.4637656297 10.691231068
300 17 2 7.39979626652 38.9076380999 11.5447230122
301 17 2 7.3175596062 38.1263413952 12.2201951449
302 17 2 7.36651186335 37.1919532449 12.665136121
303 17 2 7.55911399868 36.1905052543 12.848046894
304 17 2 7.89473367047 35.2141413542 12.7613117702
305 17 2 8.35970287081 34.3527191275 12.4218925588
306 17 2 8.92856372794 33.6856195305 11.8697825479
307 18 1 41.5127275874 29.7308715458 21.9062970472
308 18 1 39.8152170718 26.0651976118 25.6744907419
309 18 2 41.4880761051 30.2605957234 22.0680567088
310 18 2 41.2218164178 31.1938857752 22.4307211119
311 18 2 40.6961354189 31.9777973616 22.8580291078
312 18 2 39.9642807373 32.5395850848 23.3294453679
313 18 2 39.0982921823 32.8267495435 23.8204142136
314 18 2 38.1824355072 32.8118225131 24.3045978001
315 18 2 37.3055218109 32.4948706007 24.756276741
316 18 2 36.5528126442 31.903489174 25.1526943614
317 18 2 35.9982486468 31.0902871177 25.476130908
318 18 2 35.6977100559 30.128091674 25.7155186574
319 18 2 35.6839233718 29.1033104339 25.8674507094
320 18 2 35.963478425 28.1080555166 25.9364915169
321 18 2 36.5162277306 27.231747796 25.9347608482
322 18 2 37.2971228777 26.5529664268 25.8808291024
323 18 2 38.2403205719 26.1322865648 25.7980246674
324 18 2 39.2651840754 26.0067581032 25.7123075993
325 19 1 18.613025517 32.8229705497 21.9780944399
326 19 1 15.6106221289 29.6159963817 25.327554343
327 19 2 18.4928936945 33.3636533577 22.0028337673
328 19 2 18.0473454115 34.2988684313 22.0204265225
329 19 2 17.348373438 35.0636313085 22.015334066
330 19 2 16.4563884894 35.590641692 22.0067948499
331 19 2 15.4493938978 35.8342697889 22.0143614893
332 19 2 14.4158758169 35.774715344 22.0561185938
333 19 2 13.4467379457 35.4198123808 22.1470344033
334 19 2 12.6270158989 34.8043151506 22.297596473
335 19 2 12.0281264385 33.9867303757 22.5128557613
336 19 2 11.7013580261 33.043984518 22.7919662478
337 19 2 11.6731960175 32.0644121375 23.1282620459
338 19 2 11.9429085925 31.1397044334 23.509864981
339 19 2 12.482613459 30.3565518363 23.9207672539
340 19 2 13.2398192491 29.7887424071 24.3422905091
341 19 2 14.1422099671 29.4904362524 24.7547883168
342 19 2 15.104236399 29.4912289758 25.1394368929
343 20 1 31.6453334123 22.6953247994 35.1828109852
344 20 1 28.7455553258 19.2652369085 38.398984981
345 20 2 31.591196158 23.2330958551 35.3063141728
346 20 2 31.2600554259 24.1891997744 35.5291619287
347 20 2 30.6570151216 25.0048798652 35.7400135163
348 20 2 29.8364268553 25.6053377008 35.9388483625
349 20 2 28.8724711525 25.9353917877 36.126741188
350 20 2 27.8523960972 25.9645072115 36.3057640494
351 20 2 26.8685649026 25.6895788124 36.4787974769
352 20 2 26.0100372506 25.1352142125 36.6492679215
353 20 2 25.3544517404 24.3514908969 36.8208354434
354 20 2 24.9609493372 23.4093917844 36.9970601069
355 20 2 24.8647828315 22.3943353244 37.1810774904
356 20 2 25.0741036415 21.3983898337 37.3753128868
357 20 2 25.569218833 20.5118817152 37.5812602444
358 20 2 26.3043860778 19.8151624477 37.7993459974
359 20 2 27.2119829448 19.3712847638 38.0288901978
360 20 2 28.2086705035 19.2202555614 38.2681684908
361 21 1 30.5500185072 17.1874663361 5.47219031092
362 21 1 28.4982637909 13.1438344757 8.62771483513
363 21 2 30.1745734254 17.5477305058 5.28079462992
364 21 2 29.3595968047 18.0260850331 4.85601225618
365 21 2 28.453172662 18.2149301844 4.3910576417
366 21 2 27.5260798197 18.0987057847 3.94335153052
367 21 2 26.6509809971 17.6896579331 3.56874251173
368 21 2 25.8957997974 17.0267228037 3.31641656981
369 21 2 25.3175296529 16.1719777174 3.22441391363
370 21 2 24.9570390263 15.2049829602 3.31616171305
371 21 2 24.8353463591 14.2155300752 3.59833877504
372 21 2 24.9517042972 13.2954576041 4.06026678826
373 21 2 25.28366781 12.5302802493 4.67488362259
374 21 2 25.789139995 11.9913944372 5.40120996996
375 21 2 26.4102090981 11.7295707251 6.18808449879
376 21 2 27.078427015 11.7703262003 6.97882707255
377 21 2 27.721048153 12.1115986658 7.71640499279
378 21 2 28.2676599975 12.7239346043 8.3486313771
379 22 1 37.0519896823 5.83635999898 24.5276043297
380 22 1 37.4655759696 3.82608918377 19.3986913168
381 22 2 36.5446704584 5.80796220453 24.7494203759
382 22 2 35.5316575598 5.85560453107 24.9615172578
383 22 2 34.5105933495 6.01558237552 24.8888193982
384 22 2 33.568381831 6.2563269755 24.5314267526
385 22 2 32.7847397958 6.53890789471 23.9153884453
386 22 2 32.224930851 6.82058142819 23.0903284615
387 22 2 31.9338168155 7.05868657675 22.1249225532
388 22 2 31.9317686856 7.21453348304 21.1006386286
389 22 2 32.2128098727 7.25692990863 20.1043111697
390 22 2 32.7451609538 7.1650243232 19.2202265012
391 22 2 33.4741362806 6.93020646576 18.5224403177
392 22 2 34.3271284304 6.55689214694 18.0680277045
393 22 2 35.2202261785 6.06212075966 17.8918808969
394 22 2 36.0658627822 5.47400218403 18.0035289452
395 22 2 36.7807974551 4.82915464683 18.3862691683
396 22 2 37.2937025427 4.16936706811 18.9986895577
397 23 1 15.3733162411 12.0711302581 30.0499999712
398 23 1 15.6980863482 9.39614487371 25.2274520313
399 23 2 15.7794059468 12.4372396687 30.1418511468
400 23 2 16.6776107625 12.94105798 30.2551879433
401 23 2 17.6863388761 13.1771162358 30.2691200604
402 23 2 18.7161426341 13.1314252414 30.1648772471
403 23 2 19.6756533945 12.8156764932 29.9344605813
404 23 2 20.479909534 12.2661765299 29.5813715506
405 23 2 21.0581004731 11.5405376889 29.1202929004
406 23 2 21.360020871 10.7124268955 28.5757503417
407 23 2 21.3606467086 9.8648511194 27.9798770974
408 23 2 21.0624161602 9.08259151162 27.3694850453
409 23 2 20.4950073615 8.44447582895 26.7827094137
410 23 2 19.7126333258 8.01619349468 26.2555328574
411 23 2 18.7891005733 7.84430818323 25.8185057346
412 23 2 17.8110818642 7.95201366567 25.4939615236
413 23 2 16.8702162078 8.3370197595 25.2939811862
414 23 2 16.0547562118 8.97176107264 25.2192920197
415 24 1 12.0902860001 27.535524286 23.7577341993
416 24 1 9.22777269457 32.2110006759 23.076610742
417 24 2 12.4072664163 27.5198230299 24.2123312455
418 24 2 13.0758472975 27.6987143308 24.9833354731
419 24 2 13.7801282167 28.140604723 25.6015355048
420 24 2 14.4447766926 28.8141843751 26.0234156619
421 24 2 14.998072635 29.6670255992 26.2233542971
422 24 2 15.3784454396 30.6303614939 26.19595914
423 24 2 15.5400859841 31.6253538641 25.9565587874
424 24 2 15.4571220068 32.5702791115 25.5398055433
425 24 2 15.1259762946 33.3879771223 24.9965169537
426 24 2 14.565692736 34.0128842051 24.389043923
427 24 2 13.8162005221 34.3970090465 23.785587596
428 24 2 12.9346747068 34.5143069908 23.2539830056
429 24 2 11.9903248543 34.3630539407 22.8555160911
430 24 2 11.0580867714 33.9660035044 22.6393376483
431 24 2 10.21179231 33.3683130647 22.6379833661
432 24 2 9.51743979024 32.6334278047 22.8644082854
433 25 1 3.14185974442 31.3687085088 25.8320763993
434 25 1 6.15079093642 35.4293994752 23.601580262
435 25 2 3.42791983618 30.9136890366 25.9681223176
436 25 2 4.04398214514 30.0813784676 26.0024204126
437 25 2 4.72998836363 29.3455581091 25.7546021738
438 25 2 5.43979204717 28.7808287011 25.2538932387
439 25 2 6.12507767595 28.4461965005 24.5525695556
440 25 2 6.73976448534 28.3796950188 23.721192571
441 25 2 7.24420660437 28.5949183693 22.8421777423
442 25 2 7.60880667098 29.0797821995 22.0022825889
443 25 2 7.81671355238 29.7976251482 21.2846989764
444 25 2 7.86535828083 30.6905504301 20.7614704005
445 25 2 7.76668820817 31.684702973 20.4869254147
446 25 2 7.5460780366 32.6970011108 20.4927257278
447 25 2 7.24001698244 33.6427092546 20.7849803241
448 25 2 6.89278288155 34.4431613157 21.3436886454
449 25 2 6.55240638297 35.0329309088 22.1245635889
450 25 2 6.2662930836 35.3657947928 23.0630681578
451 26 1 5.7280383703 13.212448084 12.9027431849
452 26 1 4.50686434619 13.6732034672 18.2706505557
453 26 2 5.8746097604 13.6862965433 12.6550214593
454 26 2 5.95118109138 14.6532503186 12.2908961529
455 26 2 5.77466404009 15.6553247085 12.095604937
456 26 2 5.37150239975 16.6097275669 12.1006928427
457 26 2 4.78879801208 17.4380118805 12.3194408792
458 26 2 4.09001756036 18.0732260045 12.7456555062
459 26 2 3.34920775087 18.4660161254 13.354233158
460 26 2 2.6442461535 18.5891247299 14.1034483666
461 26 2 2.04974286943 18.4398750542 14.9387569268
462 26 2 1.63024001981 18.0404150637 15.7977674543
463 26 2 1.43432890392 17.4356987251 16.6159281938
464 26 2 1.49022103212 16.6893885728 17.3324107391
465 26 2 1.80317672209 15.8780530389 17.8956543798
466 26 2 2.35502563491 15.0841874451 18.2680657216
467 26 2 3.10582295293 14.3886947748 18.4294452248
468 26 2 3.99749024307 13.8635115824 18.3788283372
469 27 1 15.8355231859 23.7252450063 6.04683857366
470 27 1 17.8688784084 26.5315994549 10.3489115982
471 27 2 15.8152847128 24.0093102285 5.57115071197
472 27 2 15.6706777722 24.7024845507 4.81481202923
473 27 2 15.4130719197 25.5588808194 4.29167278693
474 27 2 15.082253038 26.5105702685 4.05022699347
475 27 2 14.7246801821 27.4809384131 4.11329305227
476 27 2 14.38925096 28.3916682553 4.47593392532
477 27 2 14.1228446467 29.1698786687 5.10590713096
478 27 2 13.9660492637 29.754767319 5.94660355996
479 27 2 13.9494620888 30.1031526338 6.92220724449
480 27 2 14.0909007969 30.1934096875 7.94460578092
481 27 2 14.3937794255 30.0274412558 8.92142153998
482 27 2 14.8467971952 29.6305043823 9.76443164072
483 27 2 15.4249685451 29.0489082669 10.3976092303
484 27 2 16.0919004998 28.3457933058 10.7640531284
485 27 2 16.8031097923 27.5953760134 10.8311742179
486 27 2 17.5100773943 26.8761843848 10.5936658555
487 28 1 36.9547766799 27.6668858344 16.098349346
488 28 1 34.4292527937 27.3230917814 20.999525308
489 28 2 37.332433224 28.0707779547 16.0579974198
490 28 2 37.8646236777 28.9596711043 16.0676047471
491 28 2 38.1360606687 29.950581575 16.2012775201
492 28 2 38.1301019509 30.952709803 16.4642480877
493 28 2 37.8553891562 31.874233756 16.8499636507
494 28 2 37.3450601317 32.6306782659 17.3406835315
495 28 2 36.6537285146 33.1526147146 17.9090961896
496 28 2 35.8525058444 33.391989267 18.5208085955
497 28 2 35.0225199363 33.3265028496 19.1374810635
498 28 2 34.247520298 32.9616436514 19.7203218114
499 28 2 33.6062445855 32.3301868905 20.2336227278
500 28 2 33.1652418764 31.4892074399 20.6480140713
501 28 2 32.9728068994 30.5148776062 20.9431414435
502 28 2 33.0545780987 29.4955242265 21.1095210383
503 28 2 33.4112007584 28.5235779143 21.1494040654
504 28 2 34.0182681866 27.6871482551 21.0765715586
505 29 1 16.7726478237 29.8192023017 12.121302186
506 29 1 14.5060425447 27.6673311766 7.56609173735
507 29 2 16.4946090349 29.7188334154 12.5903460077
508 29 2 15.791213988 29.6105407164 13.3433122157
509 29 2 14.9010946418 29.5984272339 13.8733978921
510 29 2 13.8994169627 29.6655481643 14.1294967382
511 29 2 12.8715151607 29.7877366989 14.0854756228
512 29 2 11.9051137046 29.9358067644 13.742556547
513 29 2 11.0823314711 30.0782132549 13.1292052619
514 29 2 10.4721968286 30.1839272842 12.2985366919
515 29 2 10.1243558859 30.225264386 11.3234736509
516 29 2 10.0645473821 30.1804078788 10.2901001232
517 29 2 10.2922566695 30.0353973982 9.28981493778
518 29 2 10.7807626218 29.7854013469 8.41100100982
519 29 2 11.4795731943 29.4351572814 7.73096947402
520 29 2 12.3190276377 28.9985400973 7.30891298135
521 29 2 13.2166458903 28.4972973686 7.18051044708
522 29 2 14.0846464143 27.9590671153 7.35467501304
523 30 1 7.51689701226 32.8871448578 12.4847577522
524 30 1 4.61381157007 30.1411083222 16.2991213062
525 30 2 7.90928054439 33.2227535476 12.6867071496
526 30 2 8.46737879536 33.9289797846 13.1997576886
527 30 2 8.75939272846 34.6722634986 13.8598388916
528 30 2 8.76542773647 35.3745562276 14.621546521
529 30 2 8.49165542679 35.9615457286 15.4302133618
530 30 2 7.96975109601 36.3694293394 16.2268919926
531 30 2 7.25400661123 36.5507294211 16.9537276852
532 30 2 6.41638185149 36.4786208178 17.5592317086
533 30 2 5.53994575715 36.1493758981 18.0029743892
534 30 2 4.71130481798 35.5827043184 18.2592701673
535 30 2 4.01270912309 34.8199565407 18.3195187674
536 30 2 3.51455548517 33.9203548482 18.1929890905
537 30 2 3.26897095915 32.9555953929 17.905974378
538 30 2 3.30506160045 32.0033132826 17.4993956536
539 30 2 3.62625952587 31.1400063484 17.025071881
540 30 2 4.21001008526 30.434062572 16.5409968041
541 31 1 12.5661248622 29.7572821792 16.7401857049
542 31 1 17.1627289922 31.9171224924 18.9137338077
543 31 2 12.1968859688 30.1287052136 16.5582814521
544 31 2 11.5375004077 30.9177297111 16.4313915969
545 31 2 10.9803588198 31.7777630668 16.5843160534
546 31 2 10.5876647701 32.643873026 16.9955275963
547 31 2 10.4066328698 33.4505734679 17.6199568231
548 31 2 10.4651852912 34.1377932905 18.393100109
549 31 2 10.7694067357 34.6563517306 19.2368989405
550 31 2 11.3029898302 34.9724410597 20.0668547396
551 31 2 12.0287215 35.0707080671 20.799730684
552 31 2 12.8918748414 34.9556534649 21.3611385206
553 31 2 13.8251973327 34.6512216596 21.6923188558
554 31 2 14.7550407215 34.1986182837 21.7554969178
555 31 2 15.6080738666 33.6525544122 21.5373256255
556 31 2 16.317966675 33.0762597945 21.0501021394
557 31 2 16.8314359129 32.5357196319 20.3306470084
558 31 2 17.1131018299 32.0936602024 19.4369480752
559 32 1 29.2266160294 12.5055713096 26.0945099873
560 32 1 33.1325658007 15.1428473584 23.2124408542
561 32 2 29.3021796651 11.9585692798 26.1441134595
562 32 2 29.4716892534 10.9461757884 26.003486545
563 32 2 29.6803263295 10.0268194682 25.5737138862
564 32 2 29.9281259971 9.28317861909 24.8961863049
565 32 2 30.2115537942 8.7819155452 24.0348768217
566 32 2 30.5238278502 8.56760046433 23.0705096866
567 32 2 30.855537035 8.65864905166 22.093202579
568 32 2 31.1954987584 9.04564390016 21.1942526221
569 32 2 31.5317782335 9.69219289212 20.4578148944
570 32 2 31.8527763005 10.5382462434 19.953231919
571 32 2 32.1482866589 11.5055698806 19.728713278
572 32 2 32.4104261449 12.504876268 19.8069414381
573 32 2 32.6343532605 13.4439627278 20.1830043041
574 32 2 32.818709463 14.2361154674 20.8248429434
575 32 2 32.9657429929 14.8080133102 21.6761736721
576 32 2 33.0811039524 15.1064107248 22.6616181622
577 33 1 16.4491883729 20.7665242941 27.6604184042
578 33 1 14.3413904464 18.6095072646 32.2888583679
579 33 2 16.9295595041 20.5435043295 27.4964450534
580 33 2 17.8912282031 20.1671545472 27.4127541592
581 33 2 18.8563298634 19.8577314339 27.6278962831
582 33 2 19.7342112105 19.624880263 28.1264488719
583 33 2 20.4421688686 19.4712669799 28.8671572658
584 33 2 20.9129875517 19.3923352084 29.7866949509
585 33 2 21.1010665577 19.3767215521 30.8054356011
586 33 2 20.9865761505 19.4072913376 31.8347108053
587 33 2 20.5772649871 19.4627003943 32.784891956
588 33 2 19.9077538485 19.5193405182 33.5735596572
589 33 2 19.0363800481 19.5534912972 34.1330160321
590 33 2 18.0398801413 19.5434821624 34.4164552038
591 33 2 17.0063955935 19.4716676035 34.4022295256
592 33 2 16.0274389217 19.326035509 34.0958227064
593 33 2 15.1895525723 19.1013020387 33.529349985
594 33 2 14.5664208091 18.7993932314 32.7586309123