LAMMPS input file for bananas

648 atoms

2 atom types

0 67.4746132241 xlo xhi
0 67.4746132241 ylo yhi
0 67.4746132241 zlo zhi

Masses

 1 1
 2 1

Atoms

1 1 1 54.3178688137 8.0172321082 35.6189170775
2 1 1 54.9595249117 5.91783472719 30.5674377876
3 1 2 54.6317029573 7.78445617089 36.0122416825
4 1 2 55.1318943779 7.14899838371 36.659312169
5 1 2 55.4941893523 6.3021624797 37.1329254863
6 1 2 55.7018965059 5.31816978398 37.3805429013
7 1 2 55.7524140843 4.28374252284 37.3702236578
8 1 2 55.657467085 3.29019968746 37.0935361578
9 1 2 55.4420386045 2.42513393388 36.5663264435
10 1 2 55.1420928004 1.76442811302 35.8272739393
11 1 2 54.8012970048 1.36533906902 34.9343660875
12 1 2 54.4670417463 1.2612790705 33.9596131906
13 1 2 54.1861214286 1.45877051133 32.9824851658
14 1 2 54.0004693412 1.93685143915 32.0826684066
15 1 2 53.9433357274 2.6489860936 31.3328029152
16 1 2 54.036257253 3.52730632187 30.7918616635
17 1 2 54.2870940865 4.48879729543 30.4997756115
18 1 2 54.6893134987 5.4428637426 30.4737942737
19 2 1 65.9944333117 63.1257218001 28.4628992483
20 2 1 62.7210318334 67.2272891307 30.1358078296
21 2 2 65.7597568191 62.7647037176 28.1136520012
22 2 2 65.1508851063 62.0853642958 27.6232731084
23 2 2 64.3610390539 61.4638823518 27.3730698353
24 2 2 63.4515341867 60.9684075122 27.3750321932
25 2 2 62.4945921101 60.6556047198 27.6181670248
26 2 2 61.5667580061 60.5654896129 28.0694999551
27 2 2 60.7419240644 60.717781374 28.6770807803
28 2 2 60.0845947161 61.1101054616 29.3747183719
29 2 2 59.644007497 61.7182100331 30.0880135447
30 2 2 59.4496453839 62.4981763345 30.7411400323
31 2 2 59.5085496234 63.3904215933 31.2637555314
32 2 2 59.8046779704 64.3251295797 31.5974129205
33 2 2 60.3003668288 65.2286138776 31.7008873145
34 2 2 60.9397640302 66.0300338959 31.5539334299
35 2 2 61.6539193758 66.667851503 31.1591308038
36 2 2 62.3670689748 67.0954398051 30.5416486872
37 3 1 12.6926758234 6.50567183359 29.0745436922
38 3 1 10.5495791382 4.14879755825 33.5677513633
39 3 2 12.6073910545 7.05181643588 29.0317262515
40 3 2 12.224261134 8.01332692538 28.9942120725
41 3 2 11.5835577053 8.82629435273 29.030008018
42 3 2 10.7455930919 9.42223778132 29.1539636859
43 3 2 9.78865862135 9.75245652412 29.3728935196
44 3 2 8.80188890828 9.79246887734 29.6849557186
45 3 2 7.87713784504 9.54424345993 30.0798201058
46 3 2 7.10060674928 9.03601978744 30.5396096524
47 3 2 6.54498770481 8.31973443381 31.0405298463
48 3 2 6.26283817655 7.46628736871 31.555037399
49 3 2 6.28179075797 6.5590799114 32.0543506275
50 3 2 6.60203464964 5.68641327234 32.5110727072
51 3 2 7.19629841486 4.93344050318 32.9016887044
52 3 2 8.01233558419 4.37440538 33.2087088022
53 3 2 8.97768656288 4.06587559209 33.4222623762
54 3 2 10.0062828262 4.04158698491 33.5409976353
55 4 1 54.7609676258 36.2397467573 3.52106925471
56 4 1 52.8364551649 33.8360524467 8.08781211761
57 4 2 54.5226072281 36.7231400568 3.39108467685
58 4 2 53.8778028537 37.5050135688 3.17754451434
59 4 2 53.0243220569 38.073823399 3.03358557015
60 4 2 52.0376378758 38.3856106901 2.98952557745
61 4 2 51.0053639237 38.419842427 3.06657716494
62 4 2 50.019269009 38.1812828805 3.27491447111
63 4 2 49.1669130375 37.6995593766 3.61274584132
64 4 2 48.5236665271 37.0264619689 4.0664771248
65 4 2 48.1458411021 36.23122313 4.61195068832
66 4 2 48.0655570746 35.3942076869 5.21664721883
67 4 2 48.2878158984 34.5995881174 5.84264963584
68 4 2 48.7900443204 33.9276728062 6.45009897343
69 4 2 49.5241517784 33.447586486 7.00082725162
70 4 2 50.4209135257 33.2109699924 7.46183622615
71 4 2 51.3962799923 33.2472735553 7.80830495214
72 4 2 52.3590373272 33.5610726128 8.02585204306
73 5 1 51.1201912797 16.540869382 57.1972123287
74 5 1 47.417198582 15.8342869641 61.212834484
75 5 2 51.3522755391 17.043961235 57.1768104749
76 5 2 51.5626409113 18.0576551787 57.1473270941
77 5 2 51.4686737876 19.0890951171 57.1470042918
78 5 2 51.0809489933 20.0483253947 57.1943860339
79 5 2 50.4368153514 20.8519717716 57.3036683445
80 5 2 49.5969915932 21.4308404135 57.4834054348
81 5 2 48.6400322625 21.7362244357 57.7357300463
82 5 2 47.6551680077 21.7443432017 58.0561590654
83 5 2 46.7341728193 21.4585097648 58.4340021286
84 5 2 45.9629994606 20.9088289063 58.8533359761
85 5 2 45.4139454622 20.149453291 59.2944557476
86 5 2 45.1390636978 19.2536478231 59.735670945
87 5 2 45.1654181219 18.3071120525 60.1552823728
88 5 2 45.4926170757 17.4001692484 60.5335598712
89 5 2 46.0928489839 16.6195340524 60.8545405845
90 5 2 46.9134171896 16.0404090339 61.1074838662
91 6 1 36.2251007633 26.9075285449 55.2557727574
92 6 1 35.9835896124 21.6846185025 56.9876844121
93 6 2 36.1952708336 27.2899433182 55.6560849706
94 6 2 35.9511932707 27.8804715954 56.4711927967
95 6 2 35.491341099 28.2562729972 57.3197253875
96 6 2 34.8678740159 28.3749552843 58.1382005442
97 6 2 34.1478640965 28.2175608618 58.8658755972
98 6 2 33.4071826333 27.7902946339 59.4502836838
99 6 2 32.7235849884 27.1239584697 59.8520157429
100 6 2 32.1696237252 26.2711438241 60.0483123811
101 6 2 31.8060359398 25.3014383867 60.0351382349
102 6 2 31.6762074908 24.2950836417 59.8275497667
103 6 2 31.8022186762 23.3356614062 59.4583229716
104 6 2 32.1828317653 22.5024759209 58.9749660698
105 6 2 32.7936038094 21.8633258121 58.4353894582
106 6 2 33.5891144491 21.4683247122 57.902627575
107 6 2 34.5071056687 21.345333745 57.4390937424
108 6 2 35.4741561871 21.4974221757 57.1008916206
109 7 1 55.4857386718 6.16895440295 4.07322258221
110 7 1 56.5262768509 2.35655351858 7.90982455814
111 7 2 55.8856972317 6.23823173712 3.69557916174
112 7 2 56.7717004312 6.38378969124 3.17933359667
113 7 2 57.771395908 6.52345176758 2.94738159895
114 7 2 58.799529923 6.62655771018 3.01814799569
115 7 2 59.7682567594 6.66577910408 3.38246690782
116 7 2 60.5951452575 6.61961017289 4.00441715709
117 7 2 61.2106918496 6.47432788296 4.82459623526
118 7 2 61.5646553338 6.2252427037 5.76553443537
119 7 2 61.630636015 5.87712602624 6.73875568445
120 7 2 61.4084818561 5.44377528379 7.65284153097
121 7 2 60.9243023354 4.9467564102 8.42176330988
122 7 2 60.2280887462 4.41343825297 8.97272306564
123 7 2 59.3891578336 3.87449809043 9.25278858675
124 7 2 58.4898340481 3.36112560815 9.23371781393
125 7 2 57.6179462366 2.90218017292 8.91453291015
126 7 2 56.8588226451 2.52156049937 8.32160938385
127 8 1 19.0530600484 40.5376677846 53.7380183153
128 8 1 18.3754203958 45.9682634148 54.3593640553
129 8 2 19.4522934008 40.3892985025 53.3830816476
130 8 2 20.0899118704 40.2640004008 52.5765822092
131 8 2 20.547499269 40.3565127928 51.6520534098
132 8 2 20.7967575512 40.6714537298 50.6973907542
133 8 2 20.8283764418 41.1931684263 49.8032362416
134 8 2 20.6528820043 41.8871560862 49.054716969
135 8 2 20.2996772619 42.7032144138 48.5236863796
136 8 2 19.8143623137 43.5800152093 48.2621753142
137 8 2 19.2545781984 44.450694013 48.2976497571
138 8 2 18.6847533085 45.248944343 48.6305074993
139 8 2 18.1702311845 45.9150610762 49.2340418833
140 8 2 17.7713148989 46.401382161 50.0568759314
141 8 2 17.5377708444 46.6766326862 51.0276450049
142 8 2 17.504292869 46.7287753753 52.061501202
143 8 2 17.6873401691 46.5661077011 53.067846662
144 8 2 18.0836371467 46.2165056284 53.9585909392
145 9 1 15.3873987289 44.9972692599 44.3267939853
146 9 1 20.158615748 42.2515174345 44.5083704063
147 9 2 14.9729189492 44.7684115681 44.6152578838
148 9 2 14.2606074575 44.1462492442 45.0374245008
149 9 2 13.6934813382 43.3164821518 45.2875300953
150 9 2 13.3323803743 42.3483361446 45.3582243218
151 9 2 13.2193665683 41.3236493654 45.2585089507
152 9 2 13.3738904792 40.3294132607 45.0129174194
153 9 2 13.7910184375 39.4498439071 44.6592787766
154 9 2 14.4418822149 38.7587062926 44.2452698248
155 9 2 15.276310166 38.3125911444 43.8240697061
156 9 2 16.2274000294 38.1457570715 43.4495129882
157 9 2 17.2176166103 38.2670081281 43.1711830126
158 9 2 18.1658585817 38.6588913836 43.029892713
159 9 2 18.9948503147 39.279287638 43.0539647961
160 9 2 19.6381850219 40.0652502984 43.2566503214
161 9 2 20.0463772808 40.9387425289 43.6349209575
162 9 2 20.1913732912 41.8137497734 44.169744994
163 10 1 56.1613935606 10.0070457608 22.3078634713
164 10 1 55.1224428143 5.43848173503 25.2036257226
165 10 2 56.2316061295 10.4665053351 22.6101015336
166 10 2 56.161044254 11.257316309 23.2751859617
167 10 2 55.8429611239 11.8915385389 24.0296947797
168 10 2 55.3160102629 12.3046573057 24.8198554885
169 10 2 54.6378820563 12.452309955 25.5886461633
170 10 2 53.8800456681 12.3143292489 26.2809926117
171 10 2 53.1212351166 11.8965814714 26.8487880082
172 10 2 52.4402732081 11.2304317571 27.2552775019
173 10 2 51.9088873792 10.3698853741 27.4784081689
174 10 2 51.585172232 9.38666551391 27.5128389853
175 10 2 51.5082946102 8.36367621449 27.3704276247
176 10 2 51.694923809 7.38744622552 27.0791497129
177 10 2 52.1377122837 6.54024250613 26.6805490411
178 10 2 52.8059653279 5.89257215558 26.2259511342
179 10 2 53.6484386855 5.49675617458 25.7717852811
180 10 2 54.5980091131 5.38216076481 25.3744413922
181 11 1 61.4131207834 37.1329392909 62.2302427877
182 11 1 58.3438938161 38.8645623321 66.463204209
183 11 2 61.5185302264 37.5160457907 61.8435917683
184 11 2 61.482809729 38.2656829907 61.1298226281
185 11 2 61.1507889199 39.0122817612 60.4933866696
186 11 2 60.5553498737 39.7033798625 60.002943984
187 11 2 59.7533834311 40.2915735601 59.7138483769
188 11 2 58.820603989 40.7388381506 59.6631022477
189 11 2 57.8446486525 41.0199936525 59.8659840754
190 11 2 56.9170897134 41.1249997886 60.3146558896
191 11 2 56.1250884635 41.0598710891 60.9788776475
192 11 2 55.5434510408 40.8461287077 61.8087634071
193 11 2 55.2278103627 40.5188389163 62.7393280883
194 11 2 55.2095555672 40.1234170549 63.6964104176
195 11 2 55.4929711076 39.7114882344 64.6034322197
196 11 2 56.0548462548 39.336182062 65.388377993
197 11 2 56.8465905954 39.0472902415 65.9903586291
198 11 2 57.7986627151 38.8867284009 66.3651610374
199 12 1 66.1117325028 61.9624026361 59.9567278164
200 12 1 62.9637971629 59.0218850382 63.3890002821
201 12 2 66.1550886893 62.5011508749 60.0802240834
202 12 2 66.0013405862 63.4964883296 60.3218087333
203 12 2 65.5565534337 64.3971469964 60.574151013
204 12 2 64.8621270811 65.1205553748 60.8332853988
205 12 2 63.9822142789 65.600297113 61.0946273133
206 12 2 62.9978735959 65.7921644027 61.3533909779
207 12 2 61.9996814864 65.678187218 61.6050256037
208 12 2 61.079476867 65.26827116 61.8456301651
209 12 2 60.3219906295 64.599294629 62.072308951
210 12 2 59.7971230007 63.7317476112 62.2834354893
211 12 2 59.5535726161 62.7442184313 62.4788007887
212 12 2 59.614397973 61.7262309657 62.6596323868
213 12 2 59.9749158069 60.7700851544 62.8284824683
214 12 2 60.6031279387 59.9624444947 62.988995251
215 12 2 61.4426376892 59.3764372576 63.1455748405
216 12 2 62.4177900503 59.0649913471 63.3029838259
217 13 1 30.3510468919 48.6716880126 16.3340991372
218 13 1 26.0845049574 46.9055829684 19.3364528507
219 13 2 30.2726457532 49.1558170961 16.0755395818
220 13 2 29.9272271601 49.9582720656 15.51925702
221 13 2 29.3434658397 50.5724842267 14.9237199405
222 13 2 28.5647009667 50.9522424688 14.3562631394
223 13 2 27.6520449525 51.0727045485 13.8816620877
224 13 2 26.6788134682 50.93266129 13.5562290919
225 13 2 25.7238432236 50.5546467928 13.4226808126
226 13 2 24.8643065417 49.9828846035 13.5062449341
227 13 2 24.1686776306 49.2792570422 13.812360834
228 13 2 23.6904916289 48.5176650539 14.3261838211
229 13 2 23.4634652446 47.7772926434 15.0139381273
230 13 2 23.4984237089 47.1353897966 15.8259953373
231 13 2 23.78231413 46.6602316739 16.7013976781
232 13 2 24.279395175 46.4048957972 17.5734139027
233 13 2 24.9344946473 46.4024243977 18.375621385
234 13 2 25.678038054 46.6628128434 19.0479600874
235 14 1 52.5656725418 58.5140028332 40.1152618731
236 14 1 50.038489967 54.2083579647 42.4415046435
237 14 2 52.4195788418 59.0095838537 40.3163509939
238 14 2 51.9282616986 59.8559395792 40.6554493894
239 14 2 51.1919407504 60.5282603995 40.9356536844
240 14 2 50.2759404173 60.9614906671 41.1500206502
241 14 2 49.2619616632 61.1123661988 41.2976076796
242 14 2 48.2406355134 60.96335751 41.3835586986
243 14 2 47.3032626582 60.5242675067 41.418635333
244 14 2 46.5334920202 59.8313380177 41.4182360598
245 14 2 45.9996967295 58.9439466009 41.400992742
246 14 2 45.7487423808 57.9391946854 41.3870724617
247 14 2 45.8017155562 56.9048803052 41.3963394287
248 14 2 46.152001928 55.9314959103 41.4465444945
249 14 2 46.7658891086 55.1039806003 41.5517072833
250 14 2 47.5856393044 54.4939785077 41.7208384
251 14 2 48.5347517191 54.1533089266 41.9571181745
252 14 2 49.5249350772 54.1092433393 42.2576067974
253 15 1 31.4105232622 46.6058071531 52.3813638407
254 15 1 34.3343792148 46.4388089439 47.7166223801
255 15 2 30.9079228202 46.3735375588 52.3526517722
256 15 2 29.9473138129 46.0740803806 52.1071848607
257 15 2 29.0385639963 45.9600574738 51.623582939
258 15 2 28.2678981483 46.0267128238 50.9348671152
259 15 2 27.7089556396 46.2528228317 50.092753223
260 15 2 27.4160787103 46.6026306997 49.1629382786
261 15 2 27.4193595471 47.029105418 48.2191126475
262 15 2 27.7218975868 47.4782283195 47.3362436737
263 15 2 28.2995170239 47.8939165099 46.5837429193
264 15 2 29.1029702694 48.2231344399 46.0191397773
265 15 2 30.0624265311 48.4207277317 45.6828380616
266 15 2 31.0938364115 48.4535386905 45.5944334762
267 15 2 32.106592434 48.3034284017 45.7509276015
268 15 2 33.0117872932 47.9689299681 46.1270011792
269 15 2 33.7303171464 47.4653822078 46.6773217895
270 15 2 34.2000913864 46.8235316259 47.3406755904
271 16 1 50.9205598034 55.0602939038 9.77812557719
272 16 1 54.4901287292 57.9895688034 12.7804848451
273 16 2 50.5413976846 54.7803606279 10.0701087964
274 16 2 50.0205996247 54.1817976582 10.7358339824
275 16 2 49.7812028967 53.5437150386 11.5157301602
276 16 2 49.8410832393 52.9365999884 12.3527032371
277 16 2 50.190839338 52.4281172452 13.1844569521
278 16 2 50.7946496906 52.0769418881 13.9491707533
279 16 2 51.5935374915 51.9274115067 14.5911343175
280 16 2 52.5107459631 52.0054851332 15.0658251637
281 16 2 53.45873421 52.3163772551 15.3439665725
282 16 2 54.3471559713 52.8440825504 15.4141959582
283 16 2 55.0910940626 53.5528346627 15.2841004905
284 16 2 55.6187999958 54.3903660594 14.9795255758
285 16 2 55.8782333612 55.2926718594 14.5422192263
286 16 2 55.8418049546 56.1898434385 14.0260270141
287 16 2 55.5088913437 57.0124401216 13.4919844169
288 16 2 54.9058916899 57.6978182243 13.0027538527
289 17 1 23.4716871968 57.3920036782 25.6678726416
290 17 1 19.3058278148 53.8109872189 26.0660832073
291 17 2 23.3457708817 57.9153745539 25.8005706432
292 17 2 22.9312251575 58.8592852728 25.8999822541
293 17 2 22.3076923747 59.6815237837 25.8115007814
294 17 2 21.5202023761 60.304634521 25.5579445108
295 17 2 20.6287285808 60.6693110503 25.1771771641
296 17 2 19.7027218178 60.7398014436 24.7186568806
297 17 2 18.8147803595 60.5071668219 24.2389284464
298 17 2 18.0340330867 59.9900960735 23.7964696255
299 17 2 17.4198388652 59.2332024891 23.4463613119
300 17 2 17.0163763919 58.3029575669 23.2352672842
301 17 2 16.8486176099 57.281632591 23.1971811217
302 17 2 16.9200516867 56.2598001679 23.3503279233
303 17 2 17.2123670006 55.3280791544 23.6955032141
304 17 2 17.6871201196 54.5688753702 24.216000439
305 17 2 18.2892396566 54.0488708723 24.8791336506
306 17 2 18.9520456487 53.8129463427 25.6392166094
307 18 1 2.8351248537 58.2212761264 11.4372339484
308 18 1 2.93872870035 54.7664810799 7.14884353277
309 18 2 2.59749998277 58.7123228056 11.338297953
310 18 2 2.29698525915 59.6312955816 10.9669784021
311 18 2 2.19409527346 60.4744446844 10.3743473935
312 18 2 2.28367028802 61.1599491452 9.60314169965
313 18 2 2.54300869995 61.6203562231 8.71237395117
314 18 2 2.93393613658 61.8087292609 7.77195404016
315 18 2 3.40628478787 61.7029256386 6.85631731295
316 18 2 3.90246585826 61.307614922 6.03764029857
317 18 2 4.36271839061 60.6538532639 5.37926231301
318 18 2 4.73055606768 59.796252848 4.9299125148
319 18 2 4.9579155527 58.8080043637 4.71926857631
320 18 2 5.00953713294 57.7742061757 4.75525176739
321 18 2 4.86617840084 56.7841081921 5.02330498594
322 18 2 4.5263680675 55.9229773471 5.48771953794
323 18 2 4.00654006057 55.2643261041 6.09488974012
324 18 2 3.33953568444 54.8632122992 6.77819871041
325 19 1 29.6348796724 61.8883378313 11.2025766536
326 19 1 24.3653936143 62.730185644 12.5665575447
327 19 2 29.8120295045 62.1725950658 10.7607661588
328 19 2 29.949351251 62.6157117098 9.83475932902
329 19 2 29.8173467494 62.9234665642 8.8546776833
330 19 2 29.4191768267 63.0845114469 7.91222156789
331 19 2 28.782261463 63.1008697843 7.09566201992
332 19 2 27.9557806486 62.9877521889 6.48179546756
333 19 2 27.0061919649 62.7721701172 6.1289442621
334 19 2 26.0111734315 62.4904739601 6.07164099552
335 19 2 25.0525436875 62.1850399538 6.31748109148
336 19 2 24.2088047831 61.9004078772 6.84643053451
337 19 2 23.5479872564 61.6792215555 7.61265183321
338 19 2 23.1214496159 61.5583421686 8.54868179327
339 19 2 22.9591973647 61.5654886069 9.57158032514
340 19 2 23.0671482048 61.7167110846 10.5904898645
341 19 2 23.4265926789 62.0149282727 11.5149164164
342 19 2 23.9958994091 62.4496612822 12.2629774624
343 20 1 45.1286629023 29.5966518546 63.7917947672
344 20 1 39.7877598396 29.9103733787 62.4829906537
345 20 2 45.2349764052 29.4199475894 64.3064342462
346 20 2 45.2770594406 29.2548376898 65.3280339772
347 20 2 45.1017438182 29.3054057781 66.347546396
348 20 2 44.7116705276 29.5536207634 67.2743313873
349 20 2 44.1290542477 29.9634373953 68.0262003052
350 20 2 43.3936586305 30.4840815412 68.5369069044
351 20 2 42.5591721172 31.0546779007 68.7621852318
352 20 2 41.6883146049 31.6097983714 68.683784164
353 20 2 40.8471209578 32.085425372 68.3111308727
354 20 2 40.0989223822 32.4247866061 67.6804716023
355 20 2 39.4985742213 32.5835294676 66.8515680732
356 20 2 39.0874562664 32.5337634769 65.9022506108
357 20 2 38.8897012732 32.2666023065 64.921324445
358 20 2 38.9099954263 31.7929737091 64.0004757222
359 20 2 39.1331512253 31.1426235279 63.225914942
360 20 2 39.5254917218 30.3614045667 62.6705194607
361 21 1 48.6346716082 25.7353911748 7.81416933623
362 21 1 49.6782771483 29.8351614018 4.28721505676
363 21 2 49.063951053 25.5807326431 8.12909892907
364 21 2 49.9793128668 25.2831030359 8.51149615422
365 21 2 50.9750826955 25.0122218103 8.59961017744
366 21 2 51.9687338339 24.8095490789 8.38918334886
367 21 2 52.8779326811 24.7103282176 7.90316797046
368 21 2 53.6280428834 24.7403736737 7.18963435104
369 21 2 54.1589279264 24.9137181557 6.3173895272
370 21 2 54.430432166 25.2313336486 5.36970597366
371 21 2 54.4260407399 25.6810428238 4.43673188816
372 21 2 54.1543847841 26.2386289192 3.60727480127
373 21 2 53.6484547643 26.8700429311 2.96070737886
374 21 2 52.9625936207 27.5345069473 2.55973314778
375 21 2 52.1675437819 28.1882307743 2.44467149933
376 21 2 51.3439994776 28.7884031133 2.62978285313
377 21 2 50.5752520123 29.2970935165 3.10196891766
378 21 2 49.9395983348 29.6847094871 3.82196650975
379 22 1 47.2731543123 31.8892133363 61.4938358279
380 22 1 45.826192282 27.9910192667 65.1059015534
381 22 2 47.2869901675 32.4049163916 61.6969113789
382 22 2 47.0981341643 33.3140661443 62.1556906377
383 22 2 46.6523112135 34.0775090934 62.6952228715
384 22 2 45.997292291 34.6227344074 63.2837616036
385 22 2 45.199915151 34.8971202964 63.8850937511
386 22 2 44.3399925233 34.872730127 64.461840199
387 22 2 43.5030377301 34.5488586552 64.9788626501
388 22 2 42.772470733 33.9520963043 65.4064662402
389 22 2 42.2220149752 33.1339056304 65.7231060213
390 22 2 41.9089779955 32.165930863 65.9173506355
391 22 2 41.8690282387 31.1334680249 65.9889242054
392 22 2 42.1129441218 30.1276907843 65.9487314784
393 22 2 42.6256316546 29.2373406001 65.8178639332
394 22 2 43.3675001539 28.5406385466 65.6256774368
395 22 2 44.2780706628 28.0981559985 65.407116658
396 22 2 45.2814881928 27.9472939656 65.1995301009
397 23 1 9.59546049264 15.1349158156 43.1427627463
398 23 1 8.70992459837 9.71428825924 43.5541725203
399 23 2 9.48985439028 15.3535757668 42.6443493351
400 23 2 9.42728718385 15.5850083944 41.6367668051
401 23 2 9.53112496413 15.5603522766 40.6065687357
402 23 2 9.77632343806 15.2721906421 39.6424427834
403 23 2 10.1249542545 14.7371234407 38.8270545845
404 23 2 10.5296619136 13.9942543719 38.2295133487
405 23 2 10.9379798954 13.1016268507 37.8990730287
406 23 2 11.2971126242 12.1309337481 37.8606431599
407 23 2 11.5587474227 11.1609830779 38.1125185271
408 23 2 11.6834578814 10.270515186 38.6265345834
409 23 2 11.6442973057 9.53102610821 39.3506344551
410 23 2 11.4292547224 9.00025119647 40.2136135693
411 23 2 11.0423495972 8.71690293745 41.1316094621
412 23 2 10.5032654883 8.69714257482 42.0157452677
413 23 2 9.84555602483 8.93310712268 42.7802302348
414 23 2 9.11358672385 9.39362602283 43.350178966
415 24 1 53.5544314942 49.8057263694 41.2454231521
416 24 1 56.0206842295 48.9687596156 46.0986405412
417 24 2 53.0757021857 50.0843254503 41.2695385613
418 24 2 52.1287589227 50.4467883155 41.4807668715
419 24 2 51.1928038357 50.5863676249 41.9017228819
420 24 2 50.3568884088 50.5032456709 42.5075565314
421 24 2 49.7009461967 50.2179024394 43.2565674297
422 24 2 49.2885074298 49.7692489993 44.0940055618
423 24 2 49.1609086685 49.2110810251 44.9570613768
424 24 2 49.3335252601 48.6071756904 45.7805904475
425 24 2 49.7943699804 48.0254788158 46.5030509383
426 24 2 50.5051855876 47.5319120727 47.0721127221
427 24 2 51.4049317073 47.1843646754 47.4494269119
428 24 2 52.4153482443 47.027417176 47.6141210993
429 24 2 53.4480882534 47.0882782527 47.5647017316
430 24 2 54.4127701583 47.3743048251 47.3191902384
431 24 2 55.2252154121 47.8723315218 46.9134805021
432 24 2 55.8151207949 48.5498706136 46.398067377
433 25 1 9.88017994121 19.5933140547 60.6824635635
434 25 1 4.48723800366 18.4787265416 60.7849665431
435 25 2 10.009571947 20.1202683229 60.5686318468
436 25 2 10.104280734 21.0735567359 60.1749699128
437 25 2 9.98943335672 21.9179610742 59.5863361859
438 25 2 9.6618547318 22.5859388598 58.8657834858
439 25 2 9.13775877063 23.0260276853 58.0883881422
440 25 2 8.45127059243 23.2075356596 57.3344073019
441 25 2 7.65131625365 23.1233387634 56.6819640403
442 25 2 6.79716347333 22.7905301545 56.1999269787
443 25 2 5.95301978686 22.2488622439 55.9416333815
444 25 2 5.18218046936 21.5571235361 55.9400278303
445 25 2 4.5412596053 20.7877804597 56.2046595515
446 25 2 4.07503010285 20.0203725494 56.720812069
447 25 2 3.81234295027 19.3342629629 57.450844511
448 25 2 3.76349764613 18.8014050731 58.3376223167
449 25 2 3.91930347066 18.4797844114 59.3097246601
450 25 2 4.2519171568 18.408133684 60.2879539686
451 26 1 62.2054785125 59.4415885287 38.1005417469
452 26 1 57.3946596683 59.9006436204 35.4582084225
453 26 2 62.6340345672 59.2875850459 37.7843086257
454 26 2 63.2879788112 58.8292794622 37.1247548457
455 26 2 63.6964754332 58.1947393364 36.415397665
456 26 2 63.8187546539 57.4512889356 35.7047447506
457 26 2 63.640133448 56.6761789516 35.0414218666
458 26 2 63.1733538011 55.94954563 34.4697409693
459 26 2 62.4574213648 55.3471069014 34.0256614763
460 26 2 61.5540503596 54.9332612104 33.7335128122
461 26 2 60.5420387461 54.7552180392 33.6037769479
462 26 2 59.5100863317 54.8386950874 33.6321330414
463 26 2 58.5487103911 55.1855742792 33.7998512523
464 26 2 57.7419956373 55.7737302395 34.0754998391
465 26 2 57.1599304763 56.5590468699 34.4178099461
466 26 2 56.8520280441 57.4794382288 34.7794369775
467 26 2 56.8428134237 58.4605072391 35.1112757318
468 26 2 57.1295883518 59.4223264718 35.3669360052
469 27 1 40.9668336836 12.0544533217 14.8325554199
470 27 1 38.849314984 10.226534887 19.5771801343
471 27 2 41.0274837918 12.6044735392 14.7982031818
472 27 2 40.916607267 13.6342083377 14.8053384635
473 27 2 40.5289526017 14.5878638916 14.9191945832
474 27 2 39.9054736559 15.3828743065 15.1470777012
475 27 2 39.1086180559 15.9511331046 15.4859011984
476 27 2 38.2166355213 16.2452006633 15.922467001
477 27 2 37.3164459396 16.2426280116 16.434668494
478 27 2 36.4957172143 15.9480028999 16.993505388
479 27 2 35.8348749367 15.392531658 17.5657268965
480 27 2 35.3997721447 14.6311949521 18.1168623169
481 27 2 35.2356872695 13.7377366738 18.6143627992
482 27 2 35.3631973177 12.7979426906 19.0305679503
483 27 2 35.7763024173 11.9018220514 19.345226889
484 27 2 36.4429726661 11.1354032795 19.5473439753
485 27 2 37.3080674364 10.572893462 19.6361809873
486 27 2 38.2983610662 10.2699147831 19.6213244055
487 28 1 21.3651414384 59.4599700583 47.0041579573
488 28 1 18.1634582192 56.7666909898 50.5863510496
489 28 2 21.3619751158 60.0120963514 47.0544300421
490 28 2 21.1224865173 61.0157064446 47.1444870406
491 28 2 20.5991137735 61.9045152979 47.2382850396
492 28 2 19.8389481045 62.5996409126 47.3462054109
493 28 2 18.9106627819 63.0398541896 47.4773423687
494 28 2 17.8982540312 63.1871595416 47.6386740948
495 28 2 16.8933853515 63.0302579305 47.8344267246
496 28 2 15.9870330162 62.5855766971 48.0656891644
497 28 2 15.2611942093 61.8957723218 48.3303138444
498 28 2 14.7814135444 61.0258425787 48.6231124557
499 28 2 14.5908091222 60.0572024345 48.9363288286
500 28 2 14.7061426119 59.0802636317 49.2603458543
501 28 2 15.1162915393 58.1861942792 49.5845620188
502 28 2 15.7832630243 57.4586095032 49.8983576577
503 28 2 16.6456565717 56.9659505024 50.1920628663
504 28 2 17.6242603049 56.7552466019 50.4578388446
505 29 1 43.9520299569 33.8635315168 19.3460069047
506 29 1 39.5361999084 37.0567894588 18.5458921471
507 29 2 43.9513109182 33.575061061 19.8194676008
508 29 2 43.9005336145 33.2451856889 20.7999277863
509 29 2 43.7743171523 33.2083894393 21.8272610875
510 29 2 43.5658181845 33.4630718735 22.8092811022
511 29 2 43.2756928502 33.9810662688 23.6579314235
512 29 2 42.9120369721 34.7102068228 24.2973113778
513 29 2 42.489648178 35.5790832083 24.6705938505
514 29 2 42.0286771981 36.503549135 24.7452046882
515 29 2 41.5527912645 37.3943917073 24.5157916092
516 29 2 41.087017005 38.1654625675 24.0047120276
517 29 2 40.6554594376 38.7415297285 23.2599953277
518 29 2 40.2791049635 39.0651344534 22.3509653156
519 29 2 39.9739086003 39.1018282254 21.3619218291
520 29 2 39.7493397917 38.843312494 20.3844573858
521 29 2 39.6075193327 38.3081950309 19.5091091527
522 29 2 39.5430260734 37.5402939593 18.8171071045
523 30 1 37.7717474857 35.4924312739 15.2506710417
524 30 1 34.8712045495 31.676314258 17.9637387746
525 30 2 37.7621277418 35.9992351424 15.4752552152
526 30 2 37.5114024867 36.9118039916 15.8960321313
527 30 2 36.9798164492 37.7034218225 16.300328762
528 30 2 36.2164667963 38.2978998398 16.6699115882
529 30 2 35.2915743596 38.6370171906 16.9897110162
530 30 2 34.290083488 38.6858273961 17.2491948673
531 30 2 33.3039199524 38.4358434831 17.4433283145
532 30 2 32.4236125421 37.9058115141 17.5730327719
533 30 2 31.7300419864 37.1400020116 17.6451019142
534 30 2 31.2870692307 36.2041750038 17.6715824802
535 30 2 31.1357149489 35.1795864491 17.6686762946
536 30 2 31.2904207905 34.155582312 17.6552635831
537 30 2 31.7377331228 33.2214552914 17.6511821693
538 30 2 32.4375292382 32.4583064036 17.6754193929
539 30 2 33.3266742628 31.9316531799 17.7443815439
540 30 2 34.324775468 31.6854581934 17.870398542
541 31 1 65.8276396291 61.5703347063 16.9738492417
542 31 1 60.679197289 60.4322344591 15.381710986
543 31 2 66.0580394386 61.1955419646 17.3112319328
544 31 2 66.2882966469 60.5207882593 18.0624890967
545 31 2 66.2352421795 59.919333784 18.9039972717
546 31 2 65.8971507887 59.4296777495 19.7517174203
547 31 2 65.2982763879 59.0801297049 20.521044326
548 31 2 64.486641474 58.8862293171 21.1345177788
549 31 2 63.5296602061 58.8493300359 21.5288825425
550 31 2 62.5079940667 58.9564757367 21.6608536359
551 31 2 61.508200121 59.1815815823 21.5110614614
552 31 2 60.6148419337 59.4878114773 21.0858172119
553 31 2 59.9027821799 59.8309354251 20.4165376481
554 31 2 59.4303594254 60.1633607893 19.5568816766
555 31 2 59.2340709665 60.4384700362 18.5778597084
556 31 2 59.3252463516 60.6148696028 17.5613615465
557 31 2 59.6890147709 60.660162637 16.5926926922
558 31 2 60.2856604281 60.5539017483 15.7527993332
559 32 1 7.1256232811 7.30845535355 38.750949109
560 32 1 12.172227371 8.98474938433 37.3162155419
561 32 2 6.83190535949 7.67315203078 39.0477771195
562 32 2 6.47794355116 8.36347304183 39.733974038
563 32 2 6.40877621262 9.02397730754 40.5287370627
564 32 2 6.6355784302 9.61093917648 41.3513759808
565 32 2 7.14254969442 10.0873358825 42.1186598832
566 32 2 7.88835400805 10.4262219159 42.7524030908
567 32 2 8.80988737887 10.6131849222 43.1865912434
568 32 2 9.82802931592 10.647659289 43.3733980557
569 32 2 10.8548541198 10.5429776981 43.2875443558
570 32 2 11.8016447073 10.3251559428 42.9286021077
571 32 2 12.5869785653 10.0305217664 42.3210334246
572 32 2 13.1441488546 9.70240383809 41.5119610145
573 32 2 13.4272442811 9.38718264128 40.5668732684
574 32 2 13.4153335953 9.13006321079 39.5636554431
575 32 2 13.114373332 8.97095500377 38.5854909531
576 32 2 12.5566649137 8.94083442634 37.7132797734
577 33 1 35.3474977171 49.3226059684 25.6670194922
578 33 1 36.8874404949 54.4207485564 27.072065157
579 33 2 34.8288475274 49.1861554384 25.8076039337
580 33 2 33.9244789369 49.0122140743 26.2814816874
581 33 2 33.1684473394 48.9708629 26.9881673142
582 33 2 32.6203606315 49.0821657009 27.8598960095
583 33 2 32.3208739585 49.3522728997 28.8138604244
584 33 2 32.2879842772 49.7728609865 29.7597579882
585 33 2 32.5153900562 50.3218911504 30.6080213682
586 33 2 32.9730656178 50.9656179658 31.2779819182
587 33 2 33.609997772 51.6616650566 31.7052220725
588 33 2 34.3588353197 52.3628874121 31.8474465654
589 33 2 35.1420276523 53.0216683319 31.6883373546
590 33 2 35.8788929581 53.5942593614 31.2390408988
591 33 2 36.4929718161 54.0447676636 30.5371522347
592 33 2 36.9189959486 54.3484274052 29.643288447
593 33 2 37.1088369764 54.4938569921 28.6355638365
594 33 2 37.0358929912 54.4840964242 27.6024703377