LAMMPS input file for bananas

648 atoms

2 atom types

0 42.5063427673 xlo xhi
0 42.5063427673 ylo yhi
0 42.5063427673 zlo zhi

Masses

 1 1
 2 1

Atoms

1 1 1 38.1498975437 15.5704958618 2.16216199169
2 1 1 35.9795464481 12.9863018778 6.53589136561
3 1 2 38.1735554258 16.1227398523 2.20515580078
4 1 2 37.9912703769 17.1329927402 2.34519606108
5 1 2 37.5340496227 18.0358902283 2.56695114919
6 1 2 36.848181128 18.7514108538 2.86872035519
7 1 2 36.0007934879 19.216612054 3.24150989617
8 1 2 35.0737373358 19.3913672129 3.66985267552
9 1 2 34.1561248774 19.2620230949 4.13321806742
10 1 2 33.3362075505 18.8426443006 4.60788322854
11 1 2 32.6933321432 18.1737313162 5.06909537176
12 1 2 32.2907085454 17.3185290024 5.49332791663
13 1 2 32.1696483371 16.3572619943 5.8604248742
14 1 2 32.3457993476 15.3798224404 6.15543801162
15 1 2 32.8077193982 14.4775765737 6.36998934359
16 1 2 33.5179192258 13.7350369234 6.50303476331
17 1 2 34.4162795294 13.2221592239 6.56095921003
18 1 2 35.4255306833 12.9879661368 6.55699469891
19 2 1 33.0242773864 27.8414522431 14.1831823787
20 2 1 38.3556331687 27.7667431509 15.6285387833
21 2 2 32.680702559 28.044218507 14.568180779
22 2 2 32.1500318582 28.2712581514 15.4285827887
23 2 2 31.8150569226 28.2954182441 16.4087144603
24 2 2 31.7167275609 28.128876062 17.4265774419
25 2 2 31.8744239702 27.801190885 18.3967342738
26 2 2 32.2841902828 27.3566097459 19.2380957841
27 2 2 32.9190951332 26.8500344323 19.8813121503
28 2 2 33.7316863798 26.3420173351 20.2750939503
29 2 2 34.6583162409 25.8932422596 20.3908870559
30 2 2 35.62494262 25.5589932595 20.2254752654
31 2 2 36.5538778447 25.3841156428 19.8012734519
32 2 2 37.3708696908 25.3989284417 19.1642845072
33 2 2 38.0118692736 25.6164609142 18.3799063016
34 2 2 38.4288689331 26.0312649616 17.5269708425
35 2 2 38.5942780035 26.6199117087 16.6905589477
36 2 2 38.5034376285 27.3431269828 15.9542453564
37 3 1 7.9187620759 24.0112215469 34.3466936045
38 3 1 12.2011623772 21.7174910176 36.9768721117
39 3 2 7.50894498508 24.1866525373 34.6763229535
40 3 2 6.76014660634 24.2983641123 35.3836217045
41 3 2 6.1017845605 24.127027954 36.1650648238
42 3 2 5.60364405488 23.6953047403 36.964390236
43 3 2 5.32090653167 23.0495887332 37.7237059426
44 3 2 5.2891200269 22.255779066 38.3887667229
45 3 2 5.52095906202 21.3932732132 38.9139184408
46 3 2 6.00506939514 20.5477301229 39.2662592971
47 3 2 6.70710292979 19.8032626329 39.4286387409
48 3 2 7.57284845217 19.2347708102 39.4012206964
49 3 2 8.53317283833 18.9011150099 39.2014686214
50 3 2 9.51032235371 18.8397509115 38.8625537601
51 3 2 10.4250096982 19.0633155336 38.4303316726
52 3 2 11.2036408315 19.5584754033 37.9591626235
53 3 2 11.7850228734 20.287141867 37.5069567887
54 3 2 12.1259416713 21.1899427692 37.1298958977
55 4 1 29.0919644265 16.7079046676 5.54371268015
56 4 1 27.5513771157 20.8231336089 8.89176772148
57 4 2 29.2111889207 16.861406005 5.02447819799
58 4 2 29.2255098276 17.2564904902 4.06679705462
59 4 2 28.9760292707 17.7742692367 3.20475608544
60 4 2 28.4943371768 18.3843631307 2.51976836415
61 4 2 27.8331889335 19.0479787794 2.07710903412
62 4 2 27.0616968769 19.721444425 1.91996565357
63 4 2 26.2590308868 20.3601905089 2.06550176502
64 4 2 25.5072022636 20.9228120678 2.50329248429
65 4 2 24.8835886175 21.3748426853 3.19627470084
66 4 2 24.4538811065 21.6918960139 4.0841252812
67 4 2 24.2660968625 21.8618885249 5.08875936138
68 4 2 24.3462023582 21.8861408904 6.12144757353
69 4 2 24.6957466325 21.779257607 7.09090349064
70 4 2 25.2917200998 21.5677958353 7.91160414039
71 4 2 26.0886518124 21.2878447856 8.51158519549
72 4 2 27.0227540153 20.9817362828 8.83900032979
73 5 1 13.2439580705 32.0272704745 15.5458444611
74 5 1 14.0309074349 26.8259901673 17.2326713419
75 5 2 13.4100185319 32.4166159566 15.9039165304
76 5 2 13.5932234217 33.0192353176 16.7265561144
77 5 2 13.6105856743 33.4049971193 17.6879802642
78 5 2 13.4766088909 33.5309489444 18.7076058672
79 5 2 13.2195908213 33.3778193603 19.6995449045
80 5 2 12.8790440999 32.951774459 20.5804329131
81 5 2 12.5020947742 32.2838558343 21.2770274349
82 5 2 12.1391868919 31.4271512233 21.7328838704
83 5 2 11.8394846608 30.4519557013 21.913500253
84 5 2 11.6463912622 29.4393644733 21.8094620117
85 5 2 11.5935927676 28.4738812631 21.4373000833
86 5 2 11.7019877428 27.6357160245 20.8379841622
87 5 2 11.9777823996 26.9934740184 20.0731884221
88 5 2 12.4119249164 26.5979026269 19.2196700799
89 5 2 12.9809304872 26.4772658647 18.3622731805
90 5 2 13.6490218994 26.63476819 17.586195289
91 6 1 14.6378485266 40.0687955139 11.5694489429
92 6 1 13.1182755877 34.8548221565 12.5810669408
93 6 2 14.2187524063 40.423444484 11.4922211114
94 6 2 13.3610500713 40.9232095322 11.1955198943
95 6 2 12.4648376291 41.1664214812 10.7360623689
96 6 2 11.5989858687 41.1246658441 10.1686055804
97 6 2 10.8295982836 40.7955021678 9.55775041805
98 6 2 10.2139859161 40.2026864738 8.97205341695
99 6 2 9.79544360791 39.3940059606 8.47777801304
100 6 2 9.59930379189 38.4369233275 8.13285480804
101 6 2 9.63062750805 37.412427731 7.98160134989
102 6 2 9.87374310341 36.4076528385 8.05068270677
103 6 2 10.2936746613 35.5079348282 8.34668101735
104 6 2 10.8393299625 34.7890342243 8.85549554648
105 6 2 11.4481574049 34.3102305275 9.54362792948
106 6 2 12.0518474144 34.1089190474 10.3612354586
107 6 2 12.5825586801 34.1972024196 11.2466741125
108 6 2 12.9791017086 34.5607874827 12.1321172442
109 7 1 25.1973448158 39.6660376596 14.4080119719
110 7 1 27.9588178201 36.582691199 18.0665953742
111 7 2 24.9499331331 40.1145888846 14.6200752781
112 7 2 24.40201393 40.7988867264 15.1723170927
113 7 2 23.7981256326 41.2337438058 15.893197288
114 7 2 23.2062570461 41.3853666386 16.7299482092
115 7 2 22.6933014112 41.2457777853 17.6192408943
116 7 2 22.3189592638 40.8335429733 18.4929573401
117 7 2 22.1302968911 40.1920788803 19.2843992759
118 7 2 22.1574563649 39.3856958204 19.9343675327
119 7 2 22.4109081728 38.4937360306 20.3965578892
120 7 2 22.8804968608 37.6033418383 20.6417815779
121 7 2 23.536366676 36.8015128706 20.660625763
122 7 2 24.3316828386 36.1671762713 20.4643114957
123 7 2 25.2069004069 35.7639927025 20.0836709448
124 7 2 26.0951916399 35.6345538453 19.5663371272
125 7 2 26.9285371667 35.796500282 18.9724022858
126 7 2 27.6439257708 36.2409136042 18.3689406421
127 8 1 22.0895970884 17.1836582807 34.9914634031
128 8 1 17.9323494236 14.6166900357 37.5694387607
129 8 2 22.2023053197 17.6928323635 35.1796659431
130 8 2 22.1815159895 18.676592797 35.5040626513
131 8 2 21.8603902315 19.6213291117 35.7829919515
132 8 2 21.2656169657 20.4387563532 36.0099445418
133 8 2 20.4488273512 21.0521934493 36.1831486583
134 8 2 19.4818887439 21.403552484 36.3057315672
135 8 2 18.450354179 21.4586332563 36.3854345221
136 8 2 17.4456644405 21.2102405368 36.43390717
137 8 2 16.5568134786 20.678839894 36.4656457169
138 8 2 15.8622368481 19.9106923119 36.4966716373
139 8 2 15.4226625182 18.9736376254 36.5430713597
140 8 2 15.2755756797 17.9509111006 36.6195300319
141 8 2 15.4318020704 16.9335567625 36.7379930083
142 8 2 15.874521238 16.0121289757 36.9065770636
143 8 2 16.5607996791 15.2684386562 37.1288305701
144 8 2 17.4255041136 14.7680964247 37.4034100728
145 9 1 23.9256026688 31.9990447415 24.7729906445
146 9 1 20.5930831107 27.6867239083 25.6764249185
147 9 2 24.026671587 32.313470456 25.2183030426
148 9 2 23.9812884263 32.8989884285 26.0718597682
149 9 2 23.6371644022 33.4236880317 26.8963104905
150 9 2 23.0270035154 33.8265285996 27.6303903093
151 9 2 22.2077583159 34.0575765913 28.2210713906
152 9 2 21.2554388298 34.0825569003 28.628396312
153 9 2 20.2581844487 33.8859769385 28.8291200753
154 9 2 19.3082302598 33.4725387443 28.8188288252
155 9 2 18.4935000644 32.8667104043 28.6123421613
156 9 2 17.8895923579 32.1104958529 28.2423623707
157 9 2 17.5528897297 31.2596063255 27.7564937017
158 9 2 17.51541974 30.3783824287 27.2129033646
159 9 2 17.7819356942 29.5339296655 26.675019745
160 9 2 18.3294833913 28.7900019487 26.2057510769
161 9 2 19.1094933378 28.2011906017 25.8617515246
162 9 2 20.0522077279 27.8079485052 25.6882573073
163 10 1 37.3052950488 38.8582262682 5.68713359282
164 10 1 36.5605829033 38.0116573099 11.0951568805
165 10 2 36.9398553599 39.2026089522 5.45211021371
166 10 2 36.0989350991 39.7079808876 5.11909019464
167 10 2 35.1188170472 40.0048604816 4.9619879277
168 10 2 34.0864910181 40.0793757793 5.00889689538
169 10 2 33.0937054432 39.9379227373 5.2693155014
170 10 2 32.2286047473 39.6065822488 5.73328131661
171 10 2 31.5676952194 39.1287429406 6.37227912779
172 10 2 31.1688716698 38.561146415 7.14184002309
173 10 2 31.066140472 37.968715405 7.98559461451
174 10 2 31.2665199732 37.4186362403 8.84041095696
175 10 2 31.7494007904 36.9742349934 9.6421488563
176 10 2 32.4684243009 36.6892054767 10.3315060766
177 10 2 33.3557081064 36.6027151955 10.8594235805
178 10 2 34.3280333326 36.7358353345 11.1915571293
179 10 2 35.294429807 37.0896201754 11.3114076684
180 10 2 36.164467747 37.6450110023 11.2218251724
181 11 1 26.0109868279 34.0509951886 11.8057199642
182 11 1 21.2089336874 32.4745514027 9.57567474342
183 11 2 26.1615438087 34.5722530019 11.6916827966
184 11 2 26.398581224 35.4821969281 11.256636447
185 11 2 26.5449462683 36.2437087949 10.5695214919
186 11 2 26.5704261919 36.7965455924 9.69363778955
187 11 2 26.4558266004 37.099484485 8.70949096506
188 11 2 26.1947209731 37.1340801635 7.70745453779
189 11 2 25.7940364227 36.9063460854 6.77953261654
190 11 2 25.2734223078 36.4462063644 6.01097397099
191 11 2 24.6634592462 35.8047682672 5.4725018342
192 11 2 24.0028717733 35.0496639232 5.21386766889
193 11 2 23.3349987045 34.2588858361 5.25931645463
194 11 2 22.7038429176 33.5136780762 5.60537682277
195 11 2 22.1500606083 32.8911311001 6.22117746235
196 11 2 21.7072555868 32.4571551619 7.05126095765
197 11 2 21.39891638 32.2604727695 8.02063858336
198 11 2 21.2362753151 32.3281777585 9.04162532649
199 12 1 26.5032272844 11.3555749387 36.0772160198
200 12 1 26.3367802942 7.20144715857 39.7150050251
201 12 2 26.4519220157 11.8615636785 36.29795286
202 12 2 26.1684296479 12.7126547586 36.8163408054
203 12 2 25.6730786238 13.3714972761 37.4440381141
204 12 2 25.0210617949 13.7762280438 38.1401107193
205 12 2 24.2818516822 13.8881454812 38.857392329
206 12 2 23.5328682413 13.6952371605 39.5467835069
207 12 2 22.8524222406 13.2132747067 40.1617269551
208 12 2 22.312577444 12.4843762568 40.6624510873
209 12 2 21.9725821916 11.5731675036 41.0195951024
210 12 2 21.8734690714 10.5608912368 41.2168851435
211 12 2 22.0343149092 9.53800227997 41.252617616
212 12 2 22.4505019663 8.59592277484 41.1398144658
213 12 2 23.0941388345 7.81870929771 40.905036264
214 12 2 23.9166026632 7.27539132705 40.5859612816
215 12 2 24.8529710023 7.01367939106 40.2279512157
216 12 2 25.82793931 7.05561638055 39.8799165923
217 13 1 12.952638842 20.7362090637 2.51261940029
218 13 1 7.57353979647 21.9723132242 2.74784487468
219 13 2 13.0693781326 20.1949458546 2.54068476304
220 13 2 13.1469673454 19.1902691318 2.78163000123
221 13 2 13.0241452874 18.2686364208 3.2387491315
222 13 2 12.6978083333 17.5064390216 3.86004562128
223 13 2 12.1834026965 16.9655361316 4.57855861045
224 13 2 11.5135165483 16.6876165452 5.31846621485
225 13 2 10.7349096928 16.6903988315 6.00199648829
226 13 2 9.90425153634 16.9660163343 6.55651612762
227 13 2 9.08295582192 17.4817341964 6.92115080418
228 13 2 8.33158293114 18.1829330548 7.05233369616
229 13 2 7.70431996705 18.9980874493 6.92777648793
230 13 2 7.24404174462 19.8452851773 6.54850089048
231 13 2 6.97840286592 20.6396933719 5.93874551515
232 13 2 6.91731707705 21.301290791 5.14375658905
233 13 2 7.05205365673 21.7621615398 4.22566388233
234 13 2 7.35603319814 21.9726854231 3.25781774572
235 14 1 22.5370169376 21.7550095734 36.4453550793
236 14 1 24.4619424929 25.0824309132 32.4778722633
237 14 2 22.9030336408 21.3863362765 36.6389871046
238 14 2 23.6193327113 20.6498058653 36.7727353985
239 14 2 24.3336725585 19.9194404824 36.6002969996
240 14 2 24.997164278 19.2721067637 36.1374927149
241 14 2 25.5655536365 18.7771032307 35.4266094259
242 14 2 26.0032547264 18.4898439156 34.532545752
243 14 2 26.2865935269 18.4468075204 33.5368967154
244 14 2 26.4059657269 18.6622124808 32.5305165725
245 14 2 26.3667121329 19.1267209937 31.6052376913
246 14 2 26.1886318686 19.8082901327 30.8455002765
247 14 2 25.9041777376 20.6550924758 30.3206558709
248 14 2 25.5554982369 21.600240036 30.0786461469
249 14 2 25.1905958347 22.5678809225 30.1416331519
250 14 2 24.8589516731 23.4801130381 30.5039792966
251 14 2 24.6070154943 24.2640846467 31.1327612061
252 14 2 24.4739718713 24.858634615 31.970770598
253 15 1 35.4116466393 4.63476463421 16.540249458
254 15 1 34.4087833415 1.06405783281 20.6344293766
255 15 2 35.8914897936 4.90932587928 16.5820616339
256 15 2 36.7126469911 5.46729611491 16.8784061705
257 15 2 37.3798630105 6.02716195 17.4394971091
258 15 2 37.8440102079 6.52429038736 18.2210856882
259 15 2 38.0744701201 6.89976677592 19.1588253758
260 15 2 38.061924255 7.1057647237 20.1741368837
261 15 2 37.8192034478 7.10990534563 21.1813704594
262 15 2 37.3801183643 6.89820851236 22.0956126327
263 15 2 36.7963777494 6.47636710173 22.8404258509
264 15 2 36.1328753131 5.8692281081 23.3548155579
265 15 2 35.4617748421 5.11852790529 23.5987896846
266 15 2 34.8559326637 4.27908808763 23.5570038193
267 15 2 34.3822569862 3.41381862814 23.24015981
268 15 2 34.0956093947 2.58798380269 22.6840303192
269 15 2 34.0338043641 1.86325352564 21.9461982415
270 15 2 34.2141625708 1.29208230198 21.1008081767
271 16 1 6.71410163225 30.5247665251 17.3383734575
272 16 1 7.03290706381 30.1932786844 22.8435046975
273 16 2 6.27464987226 30.2717754582 17.1141876891
274 16 2 5.52427441328 29.6175636239 16.827144909
275 16 2 4.91434450845 28.7840960246 16.7448814101
276 16 2 4.48672073776 27.8512630672 16.8877470653
277 16 2 4.26664696435 26.9080120453 17.2555718268
278 16 2 4.26044942386 26.0442398315 17.8276812257
279 16 2 4.4549601049 25.3425990172 18.5647807942
280 16 2 4.81871697816 24.8709643502 19.4125376516
281 16 2 5.30483167626 24.6762461328 20.3065328011
282 16 2 5.85526324311 24.7801144728 21.178132749
283 16 2 6.40610841196 25.1770241117 21.9607452647
284 16 2 6.89342621732 25.8347198595 22.5958890839
285 16 2 7.2590660431 26.6971765696 23.03852432
286 16 2 7.45596789583 27.6897056809 23.2611577291
287 16 2 7.45245179728 28.7257628805 23.2563486459
288 16 2 7.23510532982 29.7148363868 23.0373871803
289 17 1 38.764917537 33.9791038163 3.51098132033
290 17 1 34.8181108268 31.7211368579 6.6482242291
291 17 2 38.6046635958 34.1195684592 2.99915132272
292 17 2 38.2218207064 34.1621561812 2.03734696675
293 17 2 37.746711988 33.9219800353 1.1485066347
294 17 2 37.2048794169 33.4275408957 0.416798077032
295 17 2 36.6279466701 32.7305150292 -0.0879330970404
296 17 2 36.0507367116 31.9010439409 -0.316529660165
297 17 2 35.5080977729 31.021341164 -0.245003316732
298 17 2 35.0317270291 30.1781987161 0.123278828091
299 17 2 34.6472814867 29.4550762382 0.757901171001
300 17 2 34.3720394157 28.9244938721 1.6041719115
301 17 2 34.2133254815 28.6414222427 2.58810806335
302 17 2 34.1678431214 28.6382720331 3.62317880599
303 17 2 34.2219750171 28.9219398369 4.6181925376
304 17 2 34.3530242776 29.4731795526 5.48560874585
305 17 2 34.5312831992 30.248356614 6.14951709162
306 17 2 34.722741044 31.1834251642 6.55255643353
307 18 1 5.57373660972 13.3673827227 28.3499698026
308 18 1 4.46043415341 7.99209527139 27.7296202899
309 18 2 5.53919054736 13.668199878 27.8855376797
310 18 2 5.61275594058 14.0613991104 26.9298010488
311 18 2 5.84657383562 14.1974218533 25.9296625501
312 18 2 6.20415263107 14.0559099186 24.9676013314
313 18 2 6.63772025025 13.6418016624 24.122625898
314 18 2 7.09257843829 12.9848818669 23.4630726991
315 18 2 7.51208836187 12.137066937 23.0403774426
316 18 2 7.84283308749 11.1676728591 22.884386868
317 18 2 8.03948639221 10.1570972338 23.0006382959
318 18 2 8.06894412771 9.18949124983 23.3698549163
319 18 2 7.91334157492 8.3450895278 23.9497028175
320 18 2 7.57168176543 7.69289694925 24.67864961
321 18 2 7.05992635249 7.284399046 25.4815729385
322 18 2 6.40954074898 7.14886923154 26.2766076845
323 18 2 5.66462613912 7.29070060767 26.9826077525
324 18 2 4.87789977342 7.68900554497 27.5265423199
325 19 1 39.9304977111 20.8529288164 24.1841819723
326 19 1 39.0467614214 15.4105450088 24.5269059458
327 19 2 39.7987737095 21.1401112459 24.6397658039
328 19 2 39.3491405884 21.5600787374 25.4733768485
329 19 2 38.6766990778 21.7850171247 26.2288072874
330 19 2 37.8483500262 21.7824332647 26.8511264849
331 19 2 36.9452048376 21.5405720589 27.2975365392
332 19 2 36.055192384 21.0694878994 27.5412731968
333 19 2 35.2650445236 20.4001282379 27.5740453424
334 19 2 34.6523907241 19.5815128082 27.4067907124
335 19 2 34.2786823437 18.6762656082 27.0686789489
336 19 2 34.1835915044 17.7549068905 26.6044528653
337 19 2 34.381395084 16.8894254292 26.0703502579
338 19 2 34.8596734169 16.1467169358 25.5289779818
339 19 2 35.5804423133 15.5824866942 25.0436055026
340 19 2 36.4836152167 15.2361721724 24.6723980542
341 19 2 37.4924799328 15.127348403 24.4631150331
342 19 2 38.5206907413 15.2539437715 24.4487568571
343 20 1 16.4790273422 19.911790936 17.8043866542
344 20 1 21.8257727233 18.7806149154 18.611074761
345 20 2 16.2699616801 20.302216742 18.1379145046
346 20 2 15.9774269378 20.9016204613 18.9307503117
347 20 2 15.8478835752 21.2946771238 19.8805792376
348 20 2 15.9077651192 21.457968734 20.9019508947
349 20 2 16.1662395232 21.3890197666 21.9028939667
350 20 2 16.6143735318 21.1065228043 22.7932991485
351 20 2 17.2259469239 20.6486347588 23.493132368
352 20 2 17.9598424153 20.0694989702 23.939729678
353 20 2 18.7637933893 19.4343101864 24.0935089079
354 20 2 19.5791478592 18.8133722359 23.9415774722
355 20 2 20.3462144403 18.2756900219 23.4989074958
356 20 2 21.0097030598 17.8826799096 22.8069711442
357 20 2 21.5237644992 17.6825717891 21.9299605469
358 20 2 21.8561694282 17.7060130493 20.9489368562
359 20 2 21.9912460218 17.9632751506 19.9544417399
360 20 2 21.9313084055 18.4433174086 19.0382447503
361 21 1 33.0631145376 18.5710592421 35.9076571834
362 21 1 30.9812929488 13.4645617835 36.2358242738
363 21 2 32.7191802201 18.9744147726 36.0701228393
364 21 2 31.925783295 19.6218239592 36.227706707
365 21 2 30.9934256109 20.0725556091 36.1960817192
366 21 2 29.9982785816 20.277338367 35.9931126984
367 21 2 29.022236702 20.209318462 35.6522820176
368 21 2 28.1454530836 19.8665073565 35.2196377716
369 21 2 27.4390337126 19.2719629967 34.7495966163
370 21 2 26.9585563294 18.4716881418 34.2999838361
371 21 2 26.7390046663 17.530437336 33.9267627234
372 21 2 26.7915797733 16.5258147045 33.6789336744
373 21 2 27.1026790729 15.5412005451 33.5940679337
374 21 2 27.6351361983 14.6581514367 33.6948830761
375 21 2 28.3316086086 13.9489665754 33.98717236
376 21 2 29.1198042079 13.4700978959 34.4592766877
377 21 2 29.9190705768 13.2570046285 35.0831473009
378 21 2 30.6477462251 13.3209212848 35.8169023499
379 22 1 37.0666367338 26.2418950661 21.3382169052
380 22 1 35.996602681 27.894682919 16.1766947943
381 22 2 37.5080636473 26.4811598304 21.5733259027
382 22 2 38.4402411048 26.8644487048 21.8132943124
383 22 2 39.4354106231 27.1494480222 21.7701314801
384 22 2 40.4014933495 27.3281884321 21.4412150125
385 22 2 41.2490616148 27.4023857995 20.8499681963
386 22 2 41.8994900259 27.3832848082 20.0437250287
387 22 2 42.2921219608 27.290634038 19.0894158494
388 22 2 42.389798257 27.1508859347 18.0674668194
389 22 2 42.1822441702 26.9947857398 17.0644692913
390 22 2 41.68700589 26.8545691446 16.1652872389
391 22 2 40.9478512508 26.7610240924 15.445322133
392 22 2 40.0307804115 26.7406845404 14.9636402986
393 22 2 39.0180101172 26.8134119599 14.7575891774
394 22 2 38.0004798622 26.9905850165 14.8393932084
395 22 2 37.0695629989 27.2740624353 15.1950396028
396 22 2 36.3087383002 27.6560135828 15.7855555721
397 23 1 35.3479978288 13.6619780287 19.6704566604
398 23 1 37.0993073136 8.42387415942 19.7852347275
399 23 2 35.6586450195 14.0185314421 19.9598518476
400 23 2 36.2142024747 14.5258304267 20.6722096687
401 23 2 36.707765663 14.7808454845 21.5467453802
402 23 2 37.112067778 14.7537586756 22.5002946006
403 23 2 37.4079779218 14.4404648912 23.4424910784
404 23 2 37.5862448348 13.8629460236 24.284003334
405 23 2 37.6483401237 13.0672673748 24.9446769859
406 23 2 37.6063241279 12.1193789282 25.3608406076
407 23 2 37.4817466523 11.0991041832 25.4911092087
408 23 2 37.3036827601 10.0928644569 25.3201563656
409 23 2 37.1060826583 9.18580181182 24.8601111842
410 23 2 36.9246772273 8.45401858483 24.1494527646
411 23 2 36.7937212463 7.95764086221 23.2495029333
412 23 2 36.7428711622 7.73533814768 22.2388369236
413 23 2 36.7944819835 7.80079874054 21.2061214521
414 23 2 36.9615696809 8.14148208376 20.2420329851
415 24 1 17.4845186701 9.80378872318 23.5498007434
416 24 1 22.6537319739 10.17476317 25.4628095886
417 24 2 17.3407382292 9.30275183437 23.3609335708
418 24 2 17.2723774407 8.38448188703 22.8860050313
419 24 2 17.4764465681 7.55353579056 22.3017667347
420 24 2 17.943105718 6.8740789129 21.674058522
421 24 2 18.6385806185 6.39646878453 21.0726824007
422 24 2 19.5082410536 6.15266514428 20.5650402789
423 24 2 20.4815802612 6.15331689445 20.2099904609
424 24 2 21.4786414365 6.3867914819 20.0524828705
425 24 2 22.4173055804 6.82023517415 20.1194619853
426 24 2 23.2207764273 7.40256758928 20.4174109198
427 24 2 23.8245802193 8.06913753624 20.9317605069
428 24 2 24.182442317 8.74761579809 21.6282172381
429 24 2 24.2705050088 9.3645877468 22.4558890257
430 24 2 24.089502078 9.85224489042 23.3519238802
431 24 2 23.6646919203 10.1545654358 24.2472387013
432 24 2 23.0435553085 10.2324205255 25.0728160179
433 25 1 27.2811682601 35.3378252849 20.4120842377
434 25 1 30.8041621027 31.4581776787 18.6642742086
435 25 2 27.1291831628 35.7061132777 20.0265377779
436 25 2 27.0769696568 36.4124403596 19.2703461261
437 25 2 27.3280292674 37.0761536415 18.51542642
438 25 2 27.8579852057 37.6256633139 17.8149723998
439 25 2 28.6170400283 37.9997889216 17.2172134039
440 25 2 29.5345145406 38.1533357978 16.7610183938
441 25 2 30.5252900168 38.0612144375 16.472353152
442 25 2 31.4975665443 37.7207273391 16.3619135705
443 25 2 32.3612303399 37.1518148741 16.4241507487
444 25 2 33.036067381 36.3952377754 16.6377767607
445 25 2 33.4590746986 35.508861906 16.9677049931
446 25 2 33.5902029302 34.5623839398 17.3682481962
447 25 2 33.4160067117 33.6309786962 17.7872827542
448 25 2 32.9508701867 32.7884471561 18.1709996137
449 25 2 32.23569593 32.1004897001 18.4688088353
450 25 2 31.3341767874 31.618717694 18.6379507311
451 26 1 18.6136983628 27.3986265291 26.387304301
452 26 1 14.5170438297 23.7999046327 27.2730883661
453 26 2 18.6326638813 27.6094882093 25.8748989449
454 26 2 18.6550957497 27.7776946889 24.8528160702
455 26 2 18.6431321739 27.6416239734 23.825785572
456 26 2 18.5792008099 27.2158534545 22.8834044085
457 26 2 18.4504660383 26.5413658868 22.1075539779
458 26 2 18.2499988975 25.6818139189 21.5649368467
459 26 2 17.9774086392 24.717718325 21.3009969897
460 26 2 17.6388783449 23.7391287513 21.335777693
461 26 2 17.2466013539 22.8374159316 21.6620946621
462 26 2 16.8176698733 22.096943489 22.246190851
463 26 2 16.372517069 21.5873784172 23.0308133269
464 26 2 15.933054637 21.3573411203 23.9404317216
465 26 2 15.5206756115 21.4299737925 24.8881226234
466 26 2 15.1543044461 21.8008310697 25.7834924131
467 26 2 14.8486721012 22.438285212 26.5409164011
468 26 2 14.6129733561 23.2864088876 27.0873432888
469 27 1 7.31419559864 8.99446687482 18.1558050028
470 27 1 8.63253640968 13.8244349295 15.8209865605
471 27 2 7.44082218519 8.5468929651 17.8541016867
472 27 2 7.56421785086 7.82645430387 17.1198049781
473 27 2 7.54517645619 7.31842961834 16.2170323847
474 27 2 7.40225212497 7.07426691047 15.2203342264
475 27 2 7.16529057954 7.12136386821 14.2128218871
476 27 2 6.87270878298 7.46057063945 13.2785924347
477 27 2 6.56799333558 8.06611234331 12.4950633975
478 27 2 6.29573678751 8.88793838168 11.9259163639
479 27 2 6.09757314699 9.85628441743 11.6152925756
480 27 2 6.00838305176 10.8880312072 11.5837695716
481 27 2 6.05311449217 11.8942806986 11.8264856003
482 27 2 6.24450886855 12.7884588495 12.3135827552
483 27 2 6.58193964657 13.4942066212 12.9929284434
484 27 2 7.05146946427 13.9523399002 13.7948671319
485 27 2 7.62712048524 14.1262439724 14.6385692635
486 27 2 8.27324220905 14.0052108561 15.4393986548
487 28 1 15.116501023 17.0344699946 16.0015780324
488 28 1 15.9012962606 21.6207731422 18.9794818144
489 28 2 14.5904238351 16.9378810948 15.8556500886
490 28 2 13.5655664114 16.7922971983 15.8118026102
491 28 2 12.5635565761 16.7186012629 16.0647753564
492 28 2 11.6694157603 16.7412533773 16.5876989592
493 28 2 10.958333422 16.8759317628 17.3290987513
494 28 2 10.4888137284 17.1281037458 18.217586545
495 28 2 10.2973430573 17.4925274251 19.1683674742
496 28 2 10.3950643613 17.9537294576 20.0909688199
497 28 2 10.7667615172 18.4874154117 20.8974863571
498 28 2 11.3722462355 19.0626841403 21.5105965895
499 28 2 12.1500211148 19.6448443375 21.8706045797
500 28 2 13.0228849665 20.1985765585 21.9408849832
501 28 2 13.904969496 20.6911524923 21.7112203507
502 28 2 14.7095659686 21.0954180604 21.1987324212
503 28 2 15.3570284791 21.3922684377 20.4463215213
504 28 2 15.7820334626 21.572389407 19.5187563152
505 29 1 31.5278875516 14.8164048596 36.0739331257
506 29 1 32.6219506077 12.3406331687 40.8896959547
507 29 2 31.2136847204 15.2716565855 36.1114035803
508 29 2 30.4868542399 15.9829599611 36.3094312847
509 29 2 29.6430442738 16.4632677089 36.6710100725
510 29 2 28.7658475648 16.6768334588 37.1793068513
511 29 2 27.941899968 16.6122236608 37.8041155763
512 29 2 27.2529838241 16.2833597227 38.5046104499
513 29 2 26.7685737179 15.7282491108 39.2330670847
514 29 2 26.5395040556 15.005521071 39.9392124532
515 29 2 26.5933356441 14.1890827298 40.5748071403
516 29 2 26.9318435977 13.3613826572 41.098042237
517 29 2 27.5308555407 12.6058958999 41.4773501105
518 29 2 28.3424548551 11.999515454 41.6942817099
519 29 2 29.2993481523 11.6055436737 41.7451881476
520 29 2 30.3209988852 11.4679224311 41.6415532856
521 29 2 31.3209680399 11.6072279321 41.4089470126
522 29 2 32.2147928202 12.0187952498 41.0846946165
523 30 1 38.207632508 29.2949725392 38.0474564517
524 30 1 33.7857538315 28.8875732792 41.3336405418
525 30 2 38.430643055 29.8016887524 38.017681239
526 30 2 38.6258211737 30.8143367808 37.9181850903
527 30 2 38.5167220862 31.8360242631 37.7851358934
528 30 2 38.111474045 32.7797566694 37.6487790759
529 30 2 37.4451984884 33.5656448666 37.5396615459
530 30 2 36.5768088148 34.1281867994 37.4858474236
531 30 2 35.5836405843 34.4222378276 37.5103600711
532 30 2 34.5544025889 34.4271255394 37.6290835749
533 30 2 33.5810912834 34.1485339862 37.8493149537
534 30 2 32.7506055541 33.617985597 38.1690990547
535 30 2 32.1368261178 32.8899679927 38.5774067607
536 30 2 31.7938814922 32.0369675857 39.0551402643
537 30 2 31.7512143254 31.1428626365 39.5768737823
538 30 2 32.010897778 30.2952779749 40.1131710479
539 30 2 32.5474465598 29.5775982308 40.6332683474
540 30 2 33.3101398457 29.0613675482 41.1078785508
541 31 1 10.360151198 25.570141808 33.5820116002
542 31 1 9.12929639052 20.7792866102 36.0418274425
543 31 2 10.046473943 25.9999869175 33.737643697
544 31 2 9.2827535946 26.6561228247 33.981911812
545 31 2 8.34846259302 27.0661105559 34.1620794999
546 31 2 7.32656687027 27.1892074835 34.2805121365
547 31 2 6.30801729454 27.0108203095 34.3452020826
548 31 2 5.38345974169 26.5438352062 34.3690402016
549 31 2 4.63497296591 25.8274432756 34.3686408916
550 31 2 4.12858734063 24.9235683856 34.3628277278
551 31 2 3.90826636653 23.9112229746 34.3709177435
552 31 2 3.99189951589 22.8793062791 34.4109607345
553 31 2 4.36967165504 21.918501406 34.4980940683
554 31 2 5.00495766757 21.1130098095 34.6431629533
555 31 2 5.83766073577 20.5328765538 34.8517319276
556 31 2 6.78969000495 20.2276058927 35.1235776655
557 31 2 7.77207835616 20.2216490891 35.4527093338
558 31 2 8.69309152123 20.5121757478 35.8279146397
559 32 1 26.8636642463 13.9060113254 20.2587137424
560 32 1 26.3497666255 9.8989030555 24.0266022241
561 32 2 27.2559320367 14.2818424983 20.3694318448
562 32 2 27.8832578498 14.9932845676 20.7862801593
563 32 2 28.3349554002 15.6501856201 21.4480205476
564 32 2 28.5837354332 16.1817190047 22.3018535332
565 32 2 28.6208040836 16.5284849984 23.2774709131
566 32 2 28.4566644127 16.6479249319 24.2934641621
567 32 2 28.1201590826 16.5182002989 25.2647446023
568 32 2 27.6558414245 16.1401832771 26.1102990091
569 32 2 27.1199145218 15.5373772321 26.7605737496
570 32 2 26.575108449 14.7537744478 27.1638144106
571 32 2 26.0849625933 13.849846348 27.2907830751
572 32 2 25.7080342092 12.8970316873 27.13742328
573 32 2 25.4925610813 11.9712250996 26.7252297521
574 32 2 25.472064779 11.1458595051 26.0992892212
575 32 2 25.6622952554 10.4852128961 25.324170885
576 32 2 26.0597952806 10.0385495695 24.4780410996
577 33 1 13.9283690588 28.2381284509 9.26654891255
578 33 1 12.2322223147 25.5182540139 13.765811111
579 33 2 14.0812133234 28.7636628095 9.35505799008
580 33 2 14.1592585078 29.7594622792 9.63027131913
581 33 2 13.9695530696 30.691973999 10.0400075151
582 33 2 13.5382423535 31.4748768384 10.5639199329
583 33 2 12.9134933799 32.0354861164 11.1712550697
584 33 2 12.1611045489 32.3213786162 11.8236556651
585 33 2 11.358508293 32.3051708209 12.4786568624
586 33 2 10.5877133168 31.9870148481 13.0935567671
587 33 2 9.92782972356 31.3945845846 13.6293086103
588 33 2 9.44785834025 30.5805532861 14.0540797574
589 33 2 9.20040147686 29.61779255 14.3461531675
590 33 2 9.21686836632 28.5927302645 14.4959068438
591 33 2 9.50461229689 27.5974729376 14.5066908531
592 33 2 10.0462603796 26.7214104349 14.3945219755
593 33 2 10.8012970406 26.0430683324 14.1866238184
594 33 2 11.7097569076 25.6229505202 13.9189454571