LAMMPS input file for bananas

4320 atoms

2 atom types

0 80.0 xlo xhi
0 80.0 ylo yhi
0 80.0 zlo zhi

Masses

 1 1
 2 1

Atoms

1 1 1 48.5992567683 60.367823399 54.5794521633
2 1 1 43.2599053047 59.631495785 53.3681971718
3 1 2 48.7540894156 60.8966365951 54.6408121098
4 1 2 48.9350559474 61.9126030538 54.5485446714
5 1 2 48.9482158154 62.8893089547 54.203113908
6 1 2 48.7771166094 63.7452457071 53.6449496413
7 1 2 48.4221006412 64.4099125059 52.9338717833
8 1 2 47.9002737442 64.8302422907 52.1436379111
9 1 2 47.2439461218 64.9754386671 51.355220461
10 1 2 46.4976873592 64.8397829152 50.6494263073
11 1 2 45.7142640247 64.4431552363 50.0995314315
12 1 2 44.9498301379 63.8292227251 49.7646020127
13 1 2 44.258808881 63.0614592311 49.6841107032
14 1 2 43.6889320712 62.2173598865 49.8743388017
15 1 2 43.2768895332 61.3813776326 50.3268922563
16 1 2 43.0449849197 60.6372255594 51.00946676
17 1 2 42.9991027929 60.0602466811 51.8687922023
18 1 2 43.1281722626 59.7105466226 52.8354880967
19 2 1 52.2988011165 2.22402066172 50.5437351112
20 2 1 46.8609478343 1.66751014278 51.3425084113
21 2 2 52.4685904968 2.74256078037 50.4454025136
22 2 2 52.6138412733 3.70894584273 50.1012337551
23 2 2 52.515030403 4.60286477077 49.5868454065
24 2 2 52.1699037458 5.35294098352 48.9609674018
25 2 2 51.5986581877 5.90090877904 48.2924916591
26 2 2 50.8421007479 6.20692409746 47.6541927665
27 2 2 49.9579291282 6.25319620049 47.1160947729
28 2 2 49.0154727222 6.0456092497 46.739088683
29 2 2 48.0893734257 5.61318598089 46.5693824051
30 2 2 47.2527822277 5.00544235936 46.6342890236
31 2 2 46.5706916934 4.28787433191 46.9397372847
32 2 2 46.0940120653 3.53598804646 47.4697312064
33 2 2 45.854930931 2.82841766838 48.1878080703
34 2 2 45.8639794101 2.23975808656 49.0403619002
35 2 2 46.1090722715 1.8337657886 49.9615295041
36 2 2 46.5566094694 1.65754762744 50.8791937278
37 3 1 12.6740884103 46.3071052834 69.1397218877
38 3 1 15.1154084146 43.360789091 65.1551053951
39 3 2 12.8115222609 46.8441090034 69.1507004789
40 3 2 13.2881082676 47.7639562351 69.1647311487
41 3 2 14.0120685436 48.5050391801 69.1534351991
42 3 2 14.9184858349 49.003944431 69.0991097357
43 3 2 15.9258124178 49.2193324299 68.9879738892
44 3 2 16.9433029569 49.1357054586 68.811424905
45 3 2 17.8792856989 48.7648202143 68.5668222611
46 3 2 18.6495181086 48.1446162181 68.2577283446
47 3 2 19.1848653506 47.3357577287 67.8935837499
48 3 2 19.4376017446 46.4161043579 67.4888467936
49 3 2 19.3857608339 45.4736143746 67.0616756772
50 3 2 19.0351375688 44.5983275441 66.6322734165
51 3 2 18.418760113 43.8741582438 66.2210463896
52 3 2 17.5938794141 43.3712468921 65.8467443511
53 3 2 16.6367509331 43.1395668368 65.5247514411
54 3 2 15.635684163 43.2043694181 65.2656839629
55 4 1 59.3692592011 40.1268637801 25.6065558833
56 4 1 59.959598035 40.5939264679 20.1337738149
57 4 2 58.9114764588 40.3617945553 25.8130118828
58 4 2 58.1280132369 40.9872174556 26.0747017505
59 4 2 57.4898405224 41.8005507863 26.1430719981
60 4 2 57.0421940968 42.7236395647 25.9982624814
61 4 2 56.8129437797 43.6683248921 25.6398438219
62 4 2 56.8100531689 44.5444794022 25.0868565437
63 4 2 57.0208537802 45.2682221297 24.3760755803
64 4 2 57.4131997455 45.7695640356 23.558658338
65 4 2 57.9383978231 45.9987873217 22.6954818348
66 4 2 58.5356456561 45.9309770743 21.8515939231
67 4 2 59.137573745 45.5682921927 21.0902843516
68 4 2 59.6763859978 44.9397686109 20.4673160743
69 4 2 60.0900391618 44.0986727498 20.0258426056
70 4 2 60.3278979012 43.1176464256 19.7924746935
71 4 2 60.3553500717 42.0820857419 19.7748548206
72 4 2 60.1569615257 41.0823574637 19.9609606124
73 5 1 31.3935427897 62.5139455713 34.7974112599
74 5 1 33.6914901888 61.0958982401 29.9780160096
75 5 2 30.8523438237 62.6316876405 34.7724698814
76 5 2 29.9068863542 62.9913254946 34.548369907
77 5 2 29.1174407138 63.4919747272 34.1016306787
78 5 2 28.5497129408 64.0749551648 33.4603281011
79 5 2 28.2492000822 64.674082365 32.6702720075
80 5 2 28.2370432601 65.2217001509 31.790830717
81 5 2 28.5081007145 65.6548472911 30.8895197703
82 5 2 29.031416461 65.9209962475 30.035848069
83 5 2 29.753041846 65.9828409204 29.2949823246
84 5 2 30.6009528227 65.8216969991 28.7218072872
85 5 2 31.4916147498 65.4392049876 28.3559231471
86 5 2 32.3375963513 64.8571806765 28.2180360836
87 5 2 33.0555388435 64.1156266922 28.3080709516
88 5 2 33.5737538653 63.2690863646 28.6051781312
89 5 2 33.8387576805 62.3816722481 29.0696339147
90 5 2 33.8201460779 61.5212224336 29.6464612166
91 6 1 48.6668742431 29.4605954571 76.4974961191
92 6 1 43.2472616838 30.4002456491 75.9848088028
93 6 2 48.9510798523 29.864221444 76.7498744511
94 6 2 49.3715467906 30.7566248045 77.0665348482
95 6 2 49.6045017334 31.7610072872 77.1685046196
96 6 2 49.6163680901 32.7913310712 77.0601436446
97 6 2 49.3937209035 33.7591938554 76.7649828875
98 6 2 48.9445104995 34.5818864918 76.3235796138
99 6 2 48.2973378355 35.1899317036 75.7898207033
100 6 2 47.4988475997 35.5334167528 75.2260110054
101 6 2 46.6094766727 35.5865428532 74.6971944183
102 6 2 45.6979454671 35.3499766608 74.2652253117
103 6 2 44.8349942457 34.8507895096 73.9831306665
104 6 2 44.0869353357 34.1399899324 73.8902768067
105 6 2 43.5096089369 33.2878743687 74.0087812649
106 6 2 43.1432934374 32.3776198327 74.3414968275
107 6 2 43.0090341454 31.4977025504 74.8717515116
108 6 2 43.1067250665 30.7338335883 75.5648681712
109 7 1 72.0162888005 16.8966293305 32.0579454023
110 7 1 73.5543456372 13.76814879 36.3433837388
111 7 2 71.720623429 17.3462986344 32.1912161544
112 7 2 71.0392538837 18.0326441592 32.5628549231
113 7 2 70.2528907283 18.4691702656 33.0771777376
114 7 2 69.4418082941 18.6217413401 33.703530165
115 7 2 68.6885340084 18.4821035118 34.4010465723
116 7 2 68.0703262403 18.0686369702 35.1223749203
117 7 2 67.6521324068 17.4246806599 35.8179927746
118 7 2 67.4806691895 16.6145820521 36.4407211439
119 7 2 67.5801644336 15.7178320444 36.9500247186
120 7 2 67.9501488448 14.8218195777 37.3157065559
121 7 2 68.5654987644 14.0138663681 37.5206604505
122 7 2 69.378726123 13.3732677659 37.5624301196
123 7 2 70.3243068518 12.9640651961 37.4534330862
124 7 2 71.3246532261 12.8292089538 37.2198288554
125 7 2 72.2971857787 12.9866433997 36.8991345453
126 7 2 73.1618601982 13.4276713794 36.536805302
127 8 1 33.1349929236 74.561523361 66.4304170774
128 8 1 31.0160203563 75.3906459284 71.4643521275
129 8 2 33.1300369219 74.034350966 66.2588178581
130 8 2 33.2201298578 73.0082327375 66.147396786
131 8 2 33.4175028056 72.0061983946 66.3218132595
132 8 2 33.6873078854 71.1134102177 66.7730166519
133 8 2 33.988095222 70.4050729913 67.4667279485
134 8 2 34.2755909903 69.9395792887 68.3465641873
135 8 2 34.5067328562 69.753187145 69.3391776155
136 8 2 34.6435949932 69.8567152344 70.3609411407
137 8 2 34.6568449199 70.2345567766 71.3255707171
138 8 2 34.5284170777 70.8461020531 72.1519899057
139 8 2 34.2531594578 71.6294398749 72.7717197749
140 8 2 33.8393031934 72.5070006216 73.1351205721
141 8 2 33.3077123135 73.392626505 73.2159162546
142 8 2 32.6899820427 74.1994246211 73.0135894805
143 8 2 32.0255589809 74.8476870065 72.5534287632
144 8 2 31.3581456511 75.2721558058 71.8842234906
145 9 1 72.7964826653 53.3460946235 22.8831030102
146 9 1 76.9796498275 49.9335706018 21.7110179638
147 9 2 72.9207792192 53.8857453739 22.8564755365
148 9 2 73.3339248756 54.8318793045 22.9436033918
149 9 2 73.9581539341 55.6217653755 23.188282955
150 9 2 74.7483169752 56.1839575554 23.5530189315
151 9 2 75.6441401403 56.4677635024 23.9893732055
152 9 2 76.5757189329 56.447865036 24.442379845
153 9 2 77.4698898266 56.1266258208 24.8555550991
154 9 2 78.2568989251 55.5338759256 25.1760457414
155 9 2 78.8767598432 54.7241928919 25.3594465002
156 9 2 79.2847213057 53.7719271369 25.3738474802
157 9 2 79.4553461062 52.7644251119 25.2027426641
158 9 2 79.384829641 51.7940679063 24.8465343923
159 9 2 79.0913466881 50.9498509588 24.3224966903
160 9 2 78.6133948249 50.3092723605 23.6632007878
161 9 2 78.0062854769 49.9312691114 22.9135463378
162 9 2 77.3371024293 49.8508451702 22.1266689333
163 10 1 23.5064320546 35.6905971304 49.7753076352
164 10 1 23.5029233769 30.3756637941 51.2817811267
165 10 2 23.9804078348 35.8691617114 49.5498231827
166 10 2 24.9626494174 36.1046654553 49.319194756
167 10 2 25.9955594823 36.181219229 49.3453926303
168 10 2 26.9903048256 36.0766327524 49.6155655047
169 10 2 27.8615308557 35.785226195 50.0946244093
170 10 2 28.535141436 35.3183478773 50.7284409708
171 10 2 28.9550525504 34.7033399017 51.4487810691
172 10 2 29.0883042107 33.9810459932 52.179524195
173 10 2 28.928064672 33.2020887028 52.843601631
174 10 2 28.4942531277 32.422255297 53.3700210593
175 10 2 27.8317241281 31.6974128984 53.7003373213
176 10 2 27.0061792085 31.0784163458 53.7939795382
177 10 2 26.0981783695 30.6064729123 53.6319490374
178 10 2 25.1957972484 30.3093863721 53.2185510317
179 10 2 24.3865992603 30.199022761 52.5810022096
180 10 2 23.7496544266 30.2702288189 51.7669500078
181 11 1 6.82090379904 24.3606465708 59.170185357
182 11 1 7.10332600776 21.6093310985 63.9522865615
183 11 2 6.62432949099 24.8775660996 59.2093558842
184 11 2 6.08310447932 25.7397281168 59.4022344833
185 11 2 5.36661898871 26.4031300774 59.7486394365
186 11 2 4.54798062854 26.8131998635 60.2335353192
187 11 2 3.70960796924 26.9384559076 60.8292636287
188 11 2 2.93571830985 26.7733766538 61.4980637828
189 11 2 2.3046514963 26.3389038326 62.1955148962
190 11 2 1.88172945387 25.6805336778 62.8745846251
191 11 2 1.71330226829 24.8641700672 63.4899160395
192 11 2 1.82252349925 23.9701175595 64.0019617869
193 11 2 2.20723979541 23.0857618489 64.3805887268
194 11 2 2.84018716653 22.2976047923 64.6078244869
195 11 2 3.67147602338 21.6833799965 64.6794955959
196 11 2 4.63313848041 21.3049676076 64.6056078848
197 11 2 5.64532344688 21.202754101 64.4094344821
198 11 2 6.62357484033 21.3919511625 64.1253945302
199 12 1 38.4628679826 15.1853856055 72.9397561808
200 12 1 39.1172756409 12.1491091761 77.5082096524
201 12 2 38.0603280803 15.5656023866 72.9676562619
202 12 2 37.1785967253 16.094606765 73.0947554215
203 12 2 36.2013304774 16.3511736928 73.3240458563
204 12 2 35.2193329397 16.3181038783 73.6527360364
205 12 2 34.3238389597 16.0045976447 74.0689744108
206 12 2 33.5981988167 15.4454163453 74.5529296448
207 12 2 33.1102810669 14.697713959 75.0785981925
208 12 2 32.9062865056 13.8358276579 75.6161744514
209 12 2 33.0065370884 12.9445021727 76.1347674627
210 12 2 33.4036236393 12.1111655372 76.6052165398
211 12 2 34.0630811769 11.4179602563 77.0027491873
212 12 2 34.9265303059 10.9342562367 77.3092390473
213 12 2 35.9169983424 10.710327905 77.5148580687
214 12 2 36.9459351689 10.772771828 77.6189723076
215 12 2 37.9212843403 11.1220825072 77.6301997099
216 12 2 38.7558737829 11.7326073058 77.5656246083
217 13 1 65.8688149895 61.3624628887 12.0314221414
218 13 1 64.7069989988 58.3575897691 16.519062078
219 13 2 65.7667864768 61.9051678627 12.0808496827
220 13 2 65.3662570592 62.845640756 12.2497784661
221 13 2 64.7305144578 63.6179472603 12.5196377245
222 13 2 63.9228956633 64.1550383042 12.8839660167
223 13 2 63.0224037218 64.4113040765 13.3276913017
224 13 2 62.1165068189 64.3667312394 13.8285047146
225 13 2 61.2931657876 64.0287270897 14.3588939606
226 13 2 60.6328167141 63.4314444045 14.8886509863
227 13 2 60.2010394032 62.6326685064 15.3876253639
228 13 2 60.0425799545 61.7085502855 15.8284724214
229 13 2 60.1772722749 60.7466652499 16.1891456368
230 13 2 60.598230271 59.8380312518 16.4549061196
231 13 2 61.2724754985 59.0688124538 16.619666021
232 13 2 62.1439430587 58.5124656954 16.6865434254
233 13 2 63.1385917643 58.2230450988 16.6675781451
234 13 2 64.1711527961 58.2302751799 16.5826343237
235 14 1 63.7213222315 42.7241106315 4.9006341109
236 14 1 58.2202728929 42.806972352 5.40021510613
237 14 2 63.9956756395 43.0049988808 5.29205918295
238 14 2 64.3587784107 43.7023636209 5.96681010581
239 14 2 64.4900867825 44.5639259987 6.52709431217
240 14 2 64.3671651386 45.5072828056 6.93748219626
241 14 2 63.990750249 46.4425754898 7.17620680144
242 14 2 63.3846841158 47.2806805223 7.23714782011
243 14 2 62.5937408379 47.9413327692 7.13038944344
244 14 2 61.6795455719 48.3604414435 6.88130121423
245 14 2 60.7149575637 48.4959318092 6.52822566094
246 14 2 59.7774292228 48.3315801813 6.1189834787
247 14 2 58.9419465427 47.8784926708 5.70651480072
248 14 2 58.2741943274 47.1740928931 5.3440538467
249 14 2 57.8245691973 46.2787109046 5.08027676594
250 14 2 57.6235860722 45.2700842802 4.95486493646
251 14 2 57.6790968175 44.2362725402 4.99488811344
252 14 2 57.9755745679 43.2676307613 5.2123370934
253 15 1 55.6588570753 41.8396000085 39.9505995127
254 15 1 52.3819278963 37.6569727324 41.4623386723
255 15 2 55.3968763419 42.2692898334 39.7179746263
256 15 2 54.81067344 42.9057365405 39.1481046779
257 15 2 54.1327327315 43.2760332919 38.4576506803
258 15 2 53.4087233545 43.3472671763 37.7199609306
259 15 2 52.688513483 43.1137840631 37.0126891384
260 15 2 52.0216249764 42.5977039618 36.4107164978
261 15 2 51.4527195941 41.8469048419 35.9793264667
262 15 2 51.0175281958 40.9306586844 35.7682543541
263 15 2 50.7395939686 39.9333175252 35.8071540795
264 15 2 50.628126529 38.946624993 36.1028952975
265 15 2 50.6771624907 38.0613541227 36.6389372472
266 15 2 50.8661090114 37.3590336357 37.3768363982
267 15 2 51.1616207752 36.9045168149 38.2597504757
268 15 2 51.5206393292 36.7400703015 39.217619482
269 15 2 51.8943177462 36.8815216034 40.1735514781
270 15 2 52.2324728918 37.3168164602 41.0508310779
271 16 1 51.4510285658 33.9289432074 2.00917282913
272 16 1 56.7213249872 32.3846070774 2.60666141499
273 16 2 51.3742166422 34.382861736 1.70024001147
274 16 2 51.3949122116 35.322555597 1.26435338384
275 16 2 51.6378845112 36.3033004011 1.0351065692
276 16 2 52.0942018773 37.2333463797 1.01964854907
277 16 2 52.7354868137 38.0255648264 1.20564202774
278 16 2 53.5165025246 38.6053896463 1.56238794385
279 16 2 54.3792761277 38.9176138557 2.04362360772
280 16 2 55.258382727 38.9314215513 2.59173942193
281 16 2 56.0869087178 38.6431966975 3.14302984207
282 16 2 56.8025507827 38.0768527182 3.63349996691
283 16 2 57.3532946722 37.2816528525 4.00469850257
284 16 2 57.7021561651 36.3277199417 4.20904544174
285 16 2 57.8305520808 35.2996449198 4.21416885417
286 16 2 57.7399940868 34.2887765762 4.00585550161
287 16 2 57.4519509144 33.3848953576 3.58934633646
288 16 2 57.0058915411 32.6680301201 2.98885880297
289 17 1 27.694353595 25.104448011 49.5068829357
290 17 1 26.7931535575 27.3676883704 54.4650653274
291 17 2 27.2774345382 24.7953159847 49.3119535165
292 17 2 26.5102646662 24.1158757327 49.1594368204
293 17 2 25.8072261285 23.3676218044 49.2983716415
294 17 2 25.217070374 22.6288125324 49.7218418957
295 17 2 24.7782598875 21.9768453941 50.3969968547
296 17 2 24.5154624373 21.4812024385 51.2680454021
297 17 2 24.4373026736 21.1971171832 52.2613412444
298 17 2 24.5355760152 21.1605402269 53.2920955739
299 17 2 24.7859964748 21.3848624484 54.272105342
300 17 2 25.1504102621 21.8596944635 55.1177927311
301 17 2 25.5802733994 22.5518135903 55.7578230497
302 17 2 26.0210763759 23.4081920071 56.1396066984
303 17 2 26.4173125436 24.360830097 56.2340925714
304 17 2 26.7175374001 25.3329544313 56.0384159876
305 17 2 26.8790576172 26.246015462 55.5761597981
306 17 2 26.8718224241 27.0268471037 54.8952048726
307 18 1 65.8540826343 70.0436162746 15.8382703032
308 18 1 63.523846978 65.0355506212 15.9235419771
309 18 2 66.2815832329 70.1082768956 16.1853204875
310 18 2 66.9309490134 70.1398624747 16.9920276496
311 18 2 67.341809452 70.0388813999 17.9377794848
312 18 2 67.4854309252 69.7974665491 18.9350466272
313 18 2 67.357437927 69.4205509632 19.8916042286
314 18 2 66.9782118846 68.9254182132 20.7189380064
315 18 2 66.3910334457 68.3401270485 21.3403120842
316 18 2 65.6581375629 67.7009539173 21.6977632619
317 18 2 64.8550409445 67.0490864647 21.7573842062
318 18 2 64.0636589084 66.4268693894 21.5124140137
319 18 2 63.3648390193 65.8739448375 20.9838544488
320 18 2 62.8309920497 65.4236391267 20.2185556894
321 18 2 62.5194919317 65.0999251417 19.2849460582
322 18 2 62.4674462758 64.9152372697 18.2667949639
323 18 2 62.6883141118 64.8693380392 17.2555775437
324 18 2 63.1706791343 64.9493397653 16.342136949
325 19 1 33.6104352656 31.0370408204 25.7453062175
326 19 1 33.4176960431 28.9388618679 30.8520162872
327 19 2 33.4558765519 31.5679474314 25.7049160897
328 19 2 32.9792288702 32.4867342045 25.750609243
329 19 2 32.3037464865 33.2430284255 25.9631947829
330 19 2 31.4984078856 33.7753481407 26.3393802025
331 19 2 30.6440275996 34.0426260742 26.860961303
332 19 2 29.8258901792 34.0279528 27.4964814581
333 19 2 29.1259767346 33.7401179911 28.204098801
334 19 2 28.6154925766 33.2128092643 28.9353999991
335 19 2 28.3483770429 32.501541644 29.6398129995
336 19 2 28.3563870715 31.678597516 30.2692165368
337 19 2 28.6462026409 30.8264382813 30.7823262578
338 19 2 29.1988179075 30.0301882199 31.1484576794
339 19 2 29.9712735379 29.3698756399 31.3503229982
340 19 2 30.900572337 28.9131385114 31.3856068266
341 19 2 31.9094212742 28.7090594462 31.2671772348
342 19 2 32.9132765364 28.783691949 31.0219128604
343 20 1 31.0980840502 16.5927894883 20.1127571594
344 20 1 28.2630773578 13.2742697489 23.4992235854
345 20 2 31.0540243393 17.1339183877 20.2250952394
346 20 2 30.7410382096 18.0989183635 20.4354871129
347 20 2 30.1543273991 18.9265614018 20.6457903158
348 20 2 29.3473602415 19.5414151626 20.8560493717
349 20 2 28.3936808479 19.8874424799 21.066312828
350 20 2 27.3802057574 19.9331089994 21.2766288311
351 20 2 26.3993017272 19.6742574508 21.4870407378
352 20 2 25.5403667493 19.1344865718 21.6975831637
353 20 2 24.8816816627 18.3630001461 21.9082788277
354 20 2 24.4832750639 17.4301222104 22.1191364816
355 20 2 24.3814518609 16.420887206 22.3301501123
356 20 2 24.585484178 15.4272893169 22.5412994898
357 20 2 25.0767662263 14.539897446 22.752552011
358 20 2 25.8105101715 13.8396001014 22.9638656717
359 20 2 26.7198284256 13.3902326252 23.1751928949
360 20 2 27.7218302715 13.2327587727 23.3864848674
361 21 1 26.5362846854 28.4297311544 16.3018499165
362 21 1 26.0248081151 24.0249280974 13.0072948921
363 21 2 26.1664228343 28.8328526079 16.2119783815
364 21 2 25.5433831428 29.5620712405 15.8201726389
365 21 2 25.0452226022 30.1930122801 15.1665676423
366 21 2 24.7014397215 30.6580860763 14.3069341703
367 21 2 24.5274618988 30.904821335 13.3158219463
368 21 2 24.5232392551 30.9006477358 12.2797646306
369 21 2 24.6732491803 30.6358646304 11.2893925083
370 21 2 24.9479111781 30.1245252303 10.4311717814
371 21 2 25.3062830489 29.4031556943 9.77952340545
372 21 2 25.6997926619 28.5274258667 9.39003981818
373 21 2 26.0766651749 27.5670751198 9.29441783763
374 21 2 26.386642173 26.5995557967 9.4975695818
375 21 2 26.5855625887 25.7029736367 9.97717474221
376 21 2 26.6393878651 24.9489686467 10.6857150204
377 21 2 26.5273044796 24.3961853054 11.5548052938
378 21 2 26.2436210404 24.0849272759 12.501426737
379 22 1 77.2395944859 57.9166469415 23.3205036434
380 22 1 73.9238924379 54.2742665958 25.8219385131
381 22 2 77.5430307146 58.229832501 23.6628818677
382 22 2 77.9031196441 58.8535383009 24.4077154393
383 22 2 77.970035462 59.4663649319 25.2404313601
384 22 2 77.7422720286 59.9998604023 26.0988930148
385 22 2 77.2451824303 60.3928035439 26.918617133
386 22 2 76.5286681137 60.5967841573 27.6386512673
387 22 2 75.6626305018 60.5806154726 28.207129446
388 22 2 74.7305996665 60.33317674 28.5859996175
389 22 2 73.8221207856 59.8644268565 28.7544919934
390 22 2 73.024592339 59.2044966389 28.7110121589
391 22 2 72.4152999714 58.4009424805 28.4732864
392 22 2 72.0543721118 57.5144117129 28.0767459991
393 22 2 71.9792994281 56.6131147641 27.5712977691
394 22 2 72.201517653 55.7666079596 27.0167751801
395 22 2 72.7053652475 55.03945365 26.4774846992
396 22 2 73.4495109082 54.4853355251 26.0163444273
397 23 1 69.1412594212 4.59726159838 48.5183717695
398 23 1 64.54237167 2.65932298259 50.8874678913
399 23 2 69.5142236701 4.80817635082 48.8702158036
400 23 2 70.0264259121 5.3229912076 49.6091776008
401 23 2 70.2569354475 5.94263283111 50.406899121
402 23 2 70.1833455982 6.59853541233 51.2055394338
403 23 2 69.8109675324 7.21882805288 51.9471738635
404 23 2 69.1723461653 7.73488560527 52.5790736682
405 23 2 68.3242937776 8.08758367172 53.058512124
406 23 2 67.3427117278 8.23268763496 53.3566589511
407 23 2 66.3156722461 8.1448845254 53.4612081173
408 23 2 65.3353908861 7.82009023059 53.3774994998
409 23 2 64.4898213239 7.27582175123 53.1280321694
410 23 2 63.8546386148 6.54960057332 52.7504136609
411 23 2 63.486341615 5.69553268502 52.2939321461
412 23 2 63.4171032617 4.77937696045 51.8150639493
413 23 2 63.6518380957 3.87255141403 51.3723258808
414 23 2 64.1677543142 3.04562363941 51.0209415866
415 24 1 71.7088906542 62.522258871 49.9317555748
416 24 1 66.772696801 64.9500415479 50.4395474401
417 24 2 71.8722479592 62.2303980617 50.373924374
418 24 2 72.1223872231 61.8816508927 51.3169279646
419 24 2 72.2670857921 61.8089832577 52.3402713821
420 24 2 72.2766392368 62.0110445229 53.3564062098
421 24 2 72.1336612447 62.4614432495 54.2784410747
422 24 2 71.8346683359 63.1111527029 55.0280615639
423 24 2 71.3903973733 63.8929795085 55.5426683741
424 24 2 70.8248269261 64.727688148 55.7810830706
425 24 2 70.1729916872 65.5312230654 55.7273013918
426 24 2 69.4777891549 66.2223701063 55.3919519947
427 24 2 68.7860696402 66.7301589705 54.8113276812
428 24 2 68.1443659864 67.0003319659 54.0440774061
429 24 2 67.5946522249 67.0002894515 53.1658605823
430 24 2 67.170517754 66.7220612078 52.2624509264
431 24 2 66.8941057556 66.1830329012 51.4219184149
432 24 2 66.7740949029 65.4243614266 50.7266019401
433 25 1 24.3309509602 30.9132307036 61.0373738811
434 25 1 20.4220477651 29.0234738939 57.6216329551
435 25 2 24.161899051 31.006301977 61.5571245695
436 25 2 23.6736717397 31.3002502917 62.4223866639
437 25 2 22.99121312 31.7137259686 63.0832483046
438 25 2 22.1646734275 32.194357787 63.48234128
439 25 2 21.2573355025 32.6836534232 63.5861568929
440 25 2 20.3398467283 33.1223308697 63.3881001882
441 25 2 19.4837797109 33.4557218318 62.9090910658
442 25 2 18.7551086273 33.6387545964 62.1956574878
443 25 2 18.2081958558 33.6400621981 61.3156945785
444 25 2 17.8808369902 33.4448414345 60.3522761659
445 25 2 17.7908158726 33.0562021385 59.3960828239
446 25 2 17.9342836438 32.4948837252 58.5371365808
447 25 2 18.2861095563 31.7973648495 57.8565956514
448 25 2 18.8021715751 31.0125384748 57.4193570832
449 25 2 19.423377983 30.1972554095 57.2681415638
450 25 2 20.0810534327 29.4111425078 57.4195995442
451 26 1 74.4638271225 27.9860177017 71.6055940138
452 26 1 71.884869866 32.5913434704 73.2359145635
453 26 2 74.6507803068 27.9952561119 71.0837274153
454 26 2 74.7810288685 28.0827604284 70.0596042205
455 26 2 74.6220888553 28.2695423108 69.0529758821
456 26 2 74.1945752406 28.5567140229 68.1539683581
457 26 2 73.5435827641 28.9362375637 67.442898257
458 26 2 72.734575666 29.3916573101 66.9829521938
459 26 2 71.8474207973 29.8995999024 66.8144274983
460 26 2 70.9691079692 30.4319046641 66.9510592217
461 26 2 70.1858210646 30.9581903721 67.3787682232
462 26 2 69.5750826076 31.4486244237 68.0569444461
463 26 2 69.1986877921 31.8766419991 68.9221484158
464 26 2 69.0970720159 32.2213673733 69.8938935786
465 26 2 69.2856253014 32.4695166831 70.8819824358
466 26 2 69.7532895368 32.6166087152 71.7947278046
467 26 2 70.4635663931 32.6673733571 72.5473098598
468 26 2 71.3578440494 32.6353204804 73.069507234
469 27 1 46.0481803575 1.91287023461 79.1181637937
470 27 1 41.1679993578 1.21110759309 76.6263063205
471 27 2 46.0694067693 2.33655783472 79.475122958
472 27 2 46.0177110719 3.24942982486 79.9624034683
473 27 2 45.8371424388 4.24517693662 80.1845130569
474 27 2 45.5267884764 5.23213658272 80.1293670131
475 27 2 45.0975663767 6.11944712992 79.810151736
476 27 2 44.5712278449 6.82532969399 79.2641228294
477 27 2 43.9783764894 7.28454206646 78.5492093532
478 27 2 43.3556783846 7.45432536752 77.7387337446
479 27 2 42.7425200564 7.31830140365 76.9147286736
480 27 2 42.1774185056 6.88796549618 76.1604599846
481 27 2 41.694510486 6.20163871346 75.5528372373
482 27 2 41.320441031 5.32097500792 75.1554036054
483 27 2 41.0719348295 4.32534162311 75.0125440868
484 27 2 40.9542718156 3.30458498153 75.1454399295
485 27 2 40.9608059164 2.35084142339 75.5501380169
486 27 2 41.073570824 1.55013922547 76.1979111848
487 28 1 29.9046570939 11.9105591323 74.0910550783
488 28 1 28.9500897302 10.5779346165 79.366555444
489 28 2 29.466752867 11.8608955276 73.7546698787
490 28 2 28.6324575336 11.5540951208 73.2224341995
491 28 2 27.832388555 10.99980927 72.8673189557
492 28 2 27.125170412 10.2546611463 72.7329806402
493 28 2 26.5609644795 9.39267050665 72.8429525192
494 28 2 26.1768969519 8.4985069913 73.1984996374
495 28 2 25.9936748894 7.65977271194 73.7785035129
496 28 2 26.0136988249 6.9590175536 74.5413870304
497 28 2 26.2208439617 6.46621497323 75.4289040839
498 28 2 26.5819299058 6.23238410609 76.3714485537
499 28 2 27.0497449702 6.28493950795 77.2943987184
500 28 2 27.5673493937 6.62519239161 78.1249188248
501 28 2 28.073265248 7.22823111336 78.7985978727
502 28 2 28.5070799868 8.04519180268 79.2653205052
503 28 2 28.8149528878 9.00771217352 79.4938348893
504 28 2 28.9545224904 10.0341625639 79.4746012374
505 29 1 25.4267313907 54.1921678515 59.708570503
506 29 1 22.8277396868 55.0919128496 64.4995716638
507 29 2 25.5249905839 54.6469803851 59.4071202114
508 29 2 25.4800296366 55.5383065262 58.8808443953
509 29 2 25.1462922019 56.4225197756 58.4563019764
510 29 2 24.5586758183 57.2318302558 58.1857958889
511 29 2 23.7752184116 57.9052752767 58.1075890672
512 29 2 22.8718082937 58.3942759215 58.2424168816
513 29 2 21.9352671454 58.6670648852 58.5915971646
514 29 2 21.0554364525 58.71158198 59.1369100942
515 29 2 20.3169886941 58.5365733885 59.8422588819
516 29 2 19.791709673 58.170794473 60.6569598983
517 29 2 19.531955431 57.6603888011 61.5203623508
518 29 2 19.5658801364 57.0646822823 62.367376441
519 29 2 19.8948699061 56.4507757707 63.1344061259
520 29 2 20.493416465 55.8874290008 63.7651457274
521 29 2 21.3114421573 55.4387933221 64.2157120441
522 29 2 22.2788643907 55.1585644744 64.4586441879
523 30 1 55.8073569278 71.2060580798 51.0195511179
524 30 1 58.150768257 66.2418923807 50.4002988951
525 30 2 55.9492970384 71.5808030724 50.6364052142
526 30 2 56.4334646327 72.2146752641 49.9751656235
527 30 2 57.1630462225 72.7025142511 49.4245533844
528 30 2 58.0722990791 72.9890862226 49.0188616799
529 30 2 59.0791039182 73.0375023187 48.7791745738
530 30 2 60.0924498529 72.8325809508 48.7114452543
531 30 2 61.0207297931 72.3822315632 48.8059534171
532 30 2 61.7800901866 71.7167337079 49.0381912448
533 30 2 62.3020740464 70.8859771451 49.3710972294
534 30 2 62.5398606222 69.9549145242 49.7584342293
535 30 2 62.4725329864 68.9976411237 50.1490038614
536 30 2 62.1069845563 68.0906412649 50.4913130968
537 30 2 61.4772907778 67.3058169699 50.7382677127
538 30 2 60.6416032389 66.7039342846 50.8514648052
539 30 2 59.6768493086 66.3290846165 50.8046931109
540 30 2 58.6717204123 66.20466592 50.5863220941
541 31 1 47.600235323 64.0870302006 53.9746332287
542 31 1 45.9052686371 60.4575474714 50.1704336921
543 31 2 47.3617954726 64.0324255137 54.4721735325
544 31 2 46.7169919234 63.9316642944 55.2768632683
545 31 2 45.864798538 63.8245418897 55.8562950895
546 31 2 44.8816700092 63.7017201812 56.1593184139
547 31 2 43.8559954186 63.5552920001 56.159976555
548 31 2 42.8800418074 63.3795018443 55.8598726047
549 31 2 42.0415442823 63.1712704774 55.2880233156
550 31 2 41.4157091954 62.9304755926 54.4982143016
551 31 2 41.0583592857 62.6599629607 53.564097623
552 31 2 41.0008455861 62.3652870458 52.572478598
553 31 2 41.2471898604 62.0542047306 51.61540373
554 31 2 41.7737180298 61.7359682973 50.7817709149
555 31 2 42.5312180028 61.420482107 50.1492266352
556 31 2 43.4494252252 61.1173998433 49.7770886911
557 31 2 44.4434271063 60.8352446052 49.7009395412
558 31 2 45.4214025752 60.5806320491 49.9293830565
559 32 1 24.5558080688 75.3817505998 24.506707712
560 32 1 19.4928678889 73.9192640577 22.8496739433
561 32 2 24.5995577889 75.5012269187 25.0463306908
562 32 2 24.4957353823 75.8625290007 26.011800382
563 32 2 24.1499907326 76.3626049112 26.8507489693
564 32 2 23.5822042832 76.9427541769 27.494562132
565 32 2 22.832494994 77.5369778522 27.8924116219
566 32 2 21.9575636056 78.0779941465 28.0158881221
567 32 2 21.0255245183 78.5033709798 27.8615906805
568 32 2 20.1096973464 78.7612165001 27.4514366972
569 32 2 19.2819240314 78.8149088866 26.8306642123
570 32 2 18.6060206414 78.646434331 26.0637085796
571 32 2 18.1319607064 78.2580289481 25.2283293557
572 32 2 17.8913202652 77.6719749597 24.4085227249
573 32 2 17.8943997933 76.9285697297 23.6868654713
574 32 2 18.1292853429 76.0824527671 23.1369883255
575 32 2 18.5629344664 75.1976254809 22.8168647205
576 32 2 19.1441879479 74.3416176226 22.763526668
577 33 1 28.243958131 10.6639556962 76.9100348121
578 33 1 24.5871834047 9.52214029188 80.8902668713
579 33 2 28.2981814668 11.2025364804 76.7901508819
580 33 2 28.1648219176 12.201938811 76.5516970634
581 33 2 27.7369488599 13.1187281208 76.328376623
582 33 2 27.0522053032 13.8773655529 76.1579491624
583 33 2 26.1716473164 14.4167273715 76.07335323
584 33 2 25.1741789304 14.6956762266 76.0997040595
585 33 2 24.1493602463 14.696810714 76.2520043838
586 33 2 23.1892442719 14.4280514664 76.5337769762
587 33 2 22.379986536 13.9219192094 76.9367435586
588 33 2 21.7939922422 13.2325705837 77.4415793447
589 33 2 21.4833167278 12.4308619123 78.0196744426
590 33 2 21.4749207596 11.5978908363 78.6357415699
591 33 2 21.7682131315 10.817604481 79.2510323952
592 33 2 22.3351045514 10.1691479008 79.8268693449
593 33 2 23.1225679055 9.71965021786 80.3281709609
594 33 2 24.0574715376 9.51810598304 80.7266494813