LAMMPS input file for bananas

4320 atoms

2 atom types

0 80.0 xlo xhi
0 80.0 ylo yhi
0 80.0 zlo zhi

Masses

 1 1
 2 1

Atoms

1 1 1 8.64243024723 11.1848709683 74.7855023166
2 1 1 13.639108542 11.0274670826 72.4346681887
3 1 2 8.63591159178 11.0714452075 75.3281566191
4 1 2 8.74905965755 10.6713542138 76.2771427745
5 1 2 9.02909054062 10.0668891544 77.0706506242
6 1 2 9.46658568909 9.32175066958 77.6423294193
7 1 2 10.0377741041 8.51246140654 77.9460475361
8 1 2 10.7066990029 7.72139118432 77.9600972506
9 1 2 11.4284951834 7.02924920512 77.6891733396
10 1 2 12.1534783676 6.50772762619 77.1639451639
11 1 2 12.8316737906 6.21296701133 76.4382612387
12 1 2 13.4173712669 6.18043926856 75.5842410847
13 1 2 13.8732915514 6.42171448048 74.6857017269
14 1 2 14.1739842435 6.92340632216 73.8305179969
15 1 2 14.3081475226 7.64839218895 73.1026129765
16 1 2 14.279658279 8.53919682258 72.5743086335
17 1 2 14.1072187457 9.5232310274 72.2997338672
18 1 2 13.8226518398 10.5194079815 72.3098908044
19 2 1 63.5086991547 66.2314507222 66.4190402296
20 2 1 61.7283891161 71.3601461081 67.4412783949
21 2 2 63.6298924935 66.1277481919 65.8880604298
22 2 2 63.6430817098 66.0253349717 64.8571445321
23 2 2 63.3856440348 66.0635126949 63.8542894498
24 2 2 62.889084814 66.2553711951 62.965431043
25 2 2 62.2067046824 66.599992714 62.2661146797
26 2 2 61.4087413546 67.0825355522 61.8146094772
27 2 2 60.5759676444 67.6755868509 61.6465972277
28 2 2 59.7923292392 68.3416612004 61.7719200985
29 2 2 59.1372932743 69.036617335 62.1736835449
30 2 2 58.6786051166 69.7136814917 62.8097962023
31 2 2 58.4661135551 70.3277107133 63.616806402
32 2 2 58.5272272169 70.8393075085 64.5156856212
33 2 2 58.8644163446 71.2184108278 65.4190317214
34 2 2 59.4549876396 71.4470360481 66.2390354197
35 2 2 60.2531526963 71.5209142227 66.8954838707
36 2 2 61.1942014923 71.4498811846 67.3230718524
37 3 1 62.0697412451 32.1974648482 60.7819809215
38 3 1 57.7050188104 34.6666528066 63.099371686
39 3 2 62.1808764093 32.358242439 60.263154236
40 3 2 62.1600631184 32.6144115547 59.259463944
41 3 2 61.8416493642 32.808505972 58.2928254131
42 3 2 61.2508392869 32.9416453678 57.4521903168
43 3 2 60.4376652238 33.0205053066 56.8150254525
44 3 2 59.4724273949 33.0567087799 56.4402518497
45 3 2 58.4392862262 33.0657668024 56.3628742756
46 3 2 57.4285913516 33.0656646238 56.5907906444
47 3 2 56.5286464852 33.0752224218 57.1040721433
48 3 2 55.817660774 33.1123798931 57.8567796907
49 3 2 55.3566202429 33.1925610977 58.7811511606
50 3 2 55.1837290818 33.3272685976 59.7937777191
51 3 2 55.3109274356 33.5230350286 60.8032063171
52 3 2 55.722803092 33.780827668 61.7182753909
53 3 2 56.3779962636 34.0959602702 62.4564239954
54 3 2 57.2129694215 34.4585202051 62.9512170131
55 4 1 34.9843016961 45.2413579316 60.8342253705
56 4 1 30.4438534706 42.4353206865 62.2584711188
57 4 2 35.1745538233 45.1346692049 60.3245164028
58 4 2 35.5121552399 44.7111992155 59.4412562696
59 4 2 35.785652022 44.0298391554 58.7102309692
60 4 2 35.9537842125 43.1508755873 58.1881154421
61 4 2 35.984895555 42.1526061054 57.9125430615
62 4 2 35.8598188772 41.1242027189 57.8986754518
63 4 2 35.5736231275 40.1575840622 58.1378205469
64 4 2 35.1360628269 39.3390372565 58.598224849
65 4 2 34.5706889708 38.7413530696 59.2279676749
66 4 2 33.9127024185 38.4171912318 59.9596935875
67 4 2 33.2057454291 38.3942806426 60.716751664
68 4 2 32.497923786 38.672891955 61.4201820225
69 4 2 31.8374220837 39.225812907 61.9959128045
70 4 2 31.2681118304 40.0008286457 62.3815116262
71 4 2 30.8255526774 40.9254809723 62.5318761241
72 4 2 30.5337512522 41.9136727128 62.4233449145
73 5 1 35.8925252841 18.1959684976 56.2773378478
74 5 1 35.7876833913 13.2781235122 58.7916568288
75 5 2 35.771039767 18.1844476067 55.7365142848
76 5 2 35.7058296194 17.9922598728 54.7205115669
77 5 2 35.8437759196 17.5832237157 53.7786462625
78 5 2 36.1583916099 16.9813851055 52.996177563
79 5 2 36.6070866901 16.2283634404 52.4438360851
80 5 2 37.1350501817 15.3795580503 52.1713769644
81 5 2 37.6802460027 14.4990986954 52.2030448079
82 5 2 38.1790673901 13.6540003103 52.5353638625
83 5 2 38.5721344867 12.9080547715 53.1374548207
84 5 2 38.8097066562 12.3160164389 53.9538493872
85 5 2 38.8562162093 11.9186114416 54.9095460654
86 5 2 38.6935103035 11.7388256007 55.9168463438
87 5 2 38.3225055262 11.7798093325 56.8833481804
88 5 2 37.7631043503 12.0245904972 57.7203682022
89 5 2 37.0523810768 12.4376213633 58.3510249578
90 5 2 36.2412026114 12.9680186889 58.7172464555
91 6 1 75.3710680993 75.2417445085 48.3957276442
92 6 1 76.5341526552 69.9131730154 47.5173477606
93 6 2 74.9324797986 75.3344006052 48.7219740822
94 6 2 74.0064227903 75.3565151437 49.186063918
95 6 2 73.0183358296 75.1693889138 49.4352986334
96 6 2 72.0601222648 74.776113937 49.460028535
97 6 2 71.2209625639 74.1985721424 49.2710669433
98 6 2 70.5791857536 73.4754408868 48.8987045874
99 6 2 70.1951299376 72.6586676173 48.3899486856
100 6 2 70.1056426396 71.8087350004 47.8042383636
101 6 2 70.3207222504 70.9891480883 47.2080269365
102 6 2 70.8226067012 70.2606460035 46.6687248674
103 6 2 71.5673924283 69.6756657299 46.2485554834
104 6 2 72.4890360661 69.2735626217 45.9988834857
105 6 2 73.5053741231 69.0770232685 45.9555331945
106 6 2 74.5256119646 69.0899976731 46.1355232579
107 6 2 75.4585995008 69.2973392189 46.5355154476
108 6 2 76.2211392742 69.6661852443 47.1321189295
109 7 1 64.4121939293 37.8099440796 36.851502172
110 7 1 59.6662219243 35.002421469 37.1855045372
111 7 2 64.403383063 38.2433435773 36.5058595356
112 7 2 64.2985637202 38.8964813885 35.7084425078
113 7 2 64.0728037087 39.2999699768 34.7812535371
114 7 2 63.7290372432 39.4240333408 33.811777952
115 7 2 63.2809545115 39.264364341 32.8913553929
116 7 2 62.7517538502 38.8425172849 32.1068544481
117 7 2 62.1720272783 38.2039433088 31.5327548139
118 7 2 61.5769721166 37.4138476286 31.2243586694
119 7 2 61.0031828458 36.5512462587 31.2127500312
120 7 2 60.4853156176 35.701763913 31.5019615274
121 7 2 60.0529294389 34.9498295417 32.0686068353
122 7 2 59.7277919474 34.3709808578 32.8640122815
123 7 2 59.5218953497 34.0249792764 33.8186533177
124 7 2 59.4363633635 33.9503628216 34.8484914968
125 7 2 59.461348794 34.1609334885 35.8626343534
126 7 2 59.5769310791 34.6444992286 36.7716200088
127 8 1 26.7077694434 37.886513567 4.30310431592
128 8 1 23.3265938395 41.0015605768 7.36612973584
129 8 2 27.2421683054 38.0328227051 4.3229305729
130 8 2 28.1561979114 38.5205671676 4.31267241311
131 8 2 28.8889105159 39.2510051791 4.25751299177
132 8 2 29.3755341676 40.162478977 4.18094309969
133 8 2 29.5737272654 41.1768298711 4.10840503485
134 8 2 29.4674378823 42.2065221985 4.06497360494
135 8 2 29.0683668555 43.1626219658 4.07307062568
136 8 2 28.4149012867 43.9629029447 4.15042123224
137 8 2 27.56861566 44.5393413731 4.30843828055
138 8 2 26.6086594926 44.8443161389 4.55118209596
139 8 2 25.6245430674 44.8549493176 4.87499038546
140 8 2 24.7079788104 44.5751914333 5.26881204588
141 8 2 23.9445219481 44.0354613796 5.71521444246
142 8 2 23.4057723769 43.2898738184 6.19197234682
143 8 2 23.1428485246 42.4113067732 6.67409370723
144 8 2 23.1817280417 41.4847589921 7.13609760724
145 9 1 71.5543108662 15.4517085317 51.2023697907
146 9 1 69.6903430605 20.6509508369 51.3095823485
147 9 2 71.6914614239 15.2424839205 51.6971388021
148 9 2 72.0710093538 15.0508407895 52.6419489896
149 9 2 72.5682309891 15.1390799525 53.5466226914
150 9 2 73.1241141939 15.5065331667 54.3399839012
151 9 2 73.6742999869 16.1270825747 54.9610024488
152 9 2 74.1549486909 16.9515412774 55.3643567373
153 9 2 74.5085587483 17.9121365887 55.524564685
154 9 2 74.6892078346 18.9286873343 55.4383063492
155 9 2 74.6667385557 19.9159121516 55.1247265306
156 9 2 74.4295072134 20.7912026583 54.623689775
157 9 2 73.9854450977 21.4821529849 53.9921468274
158 9 2 73.3613355707 21.9331593769 53.298943723
159 9 2 72.6003728349 22.1104883281 52.6185466559
160 9 2 71.758224897 22.0053512994 52.0242545837
161 9 2 70.8979595778 21.634705771 51.5815182242
162 9 2 70.084296049 21.0397096131 51.3419743969
163 10 1 76.3969470498 66.9923521451 51.207150187
164 10 1 73.7503269714 63.7950105171 54.8527502385
165 10 2 76.3399034932 67.5375770908 51.2899594821
166 10 2 76.0042073671 68.503906296 51.4541727251
167 10 2 75.3990450093 69.3255030018 51.6336368854
168 10 2 74.5800678202 69.9285845096 51.8311693385
169 10 2 73.6224158511 70.2592851971 52.0479405832
170 10 2 72.6138689886 70.2885662258 52.2833675539
171 10 2 71.6468460527 70.0148623536 52.5351667655
172 10 2 70.8099810686 69.4642246022 52.7995624468
173 10 2 70.1800445122 68.687945776 53.0716306921
174 10 2 69.814945886 67.7578852606 53.345748262
175 10 2 69.7484554233 66.7599192315 53.6161051266
176 10 2 69.9871260212 65.7861132701 53.8772340344
177 10 2 70.5096959618 64.9263308324 54.1245088372
178 10 2 71.269026861 64.2600424348 54.3545661518
179 10 2 72.196400206 63.8490821293 54.5656119227
180 10 2 73.2077808643 63.7320114945 54.757584946
181 11 1 61.2229284801 32.2566048231 70.078107719
182 11 1 57.4991299033 35.8435845627 68.1326279404
183 11 2 61.6480805856 32.4858436411 70.3502783264
184 11 2 62.4566012917 33.0506119031 70.6677387005
185 11 2 63.2110619382 33.7587807016 70.7200464147
186 11 2 63.8340100607 34.5600735213 70.5119227374
187 11 2 64.2599802097 35.3957258413 70.0718265624
188 11 2 64.4414609518 36.2038413643 69.4493604566
189 11 2 64.3532254093 36.9250336983 68.7107495186
190 11 2 63.9946306233 37.5078392674 67.9328051381
191 11 2 63.3896761569 37.91340808 67.195923843
192 11 2 62.5848165999 38.1190448006 66.5767593706
193 11 2 61.6447273568 38.1202773698 66.1412358845
194 11 2 60.6464096564 37.9312646202 65.9385391633
195 11 2 59.6721720959 37.5835057368 65.9966334481
196 11 2 58.802128432 37.1229691904 66.319712577
197 11 2 58.1068954264 36.6059028342 66.8878177277
198 11 2 57.6411563162 36.0937070626 67.658656611
199 12 1 5.21546962085 40.5115536307 78.2022076613
200 12 1 9.70876884724 43.725101714 78.2391107737
201 12 2 4.8466539046 40.6302466897 77.8056367177
202 12 2 4.17992483858 41.0713681916 77.1465963668
203 12 2 3.60551674311 41.7649495143 76.6342973332
204 12 2 3.18723868269 42.6521773399 76.3006504227
205 12 2 2.97466888645 43.6565879892 76.1612827773
206 12 2 2.99863582504 44.6910368818 76.2141135034
207 12 2 3.26840827793 45.6656415318 76.4395433394
208 12 2 3.77085050894 46.4959740961 76.8022410763
209 12 2 4.47161955351 47.1107567466 77.2543639026
210 12 2 5.31829548808 47.4583584535 77.7399181491
211 12 2 6.24515936605 47.5115010162 78.199862962
212 12 2 7.17918332411 47.269745398 78.5774917189
213 12 2 8.04668687677 46.759531743 78.8236006857
214 12 2 8.78005269571 46.031769428 78.900973806
215 12 2 9.32388974852 45.1571968088 78.7877748446
216 12 2 9.64008204326 44.2199336078 78.4795377021
217 13 1 62.8032143336 59.7339405733 5.52550304602
218 13 1 60.9149556895 54.5467094282 5.73787866139
219 13 2 62.5436113816 60.0909423249 5.86096935548
220 13 2 61.8646908061 60.6686453375 6.38896186725
221 13 2 60.9866310739 61.0749794401 6.75957448847
222 13 2 59.986436066 61.2621047652 6.95462337983
223 13 2 58.9522419671 61.2021617394 6.97192686677
224 13 2 57.9752838883 60.8898104092 6.82550429327
225 13 2 57.1415800305 60.3427171636 6.5442981961
226 13 2 56.524091355 59.5999444893 6.16953626999
227 13 2 56.1760713874 58.7183905305 5.75097357342
228 13 2 56.1262123006 57.7676029741 5.34235748801
229 13 2 56.3760297003 56.8234399646 4.99652878839
230 13 2 56.8997244813 55.9611558367 4.76060534677
231 13 2 57.6465343472 55.2485418839 4.67168746485
232 13 2 58.5453606577 54.7397473632 4.75347628046
233 13 2 59.5112488803 54.4703439353 5.01411347223
234 13 2 60.453131968 54.4540834024 5.44543916731
235 14 1 34.238964925 14.5998694957 77.5800136098
236 14 1 29.0741134582 16.0211288689 78.9299477493
237 14 2 34.6028924635 15.0181080462 77.5761600872
238 14 2 35.1203065576 15.9046126935 77.4352978256
239 14 2 35.3805280298 16.8646334391 77.1453065075
240 14 2 35.3540376699 17.8210217625 76.7477267709
241 14 2 35.0374492849 18.6969602285 76.2939056503
242 14 2 34.4538183414 19.4229641915 75.8403164322
243 14 2 33.6505405217 19.9432151351 75.4434112658
244 14 2 32.6950317334 20.2206483808 75.1544757005
245 14 2 31.6685833303 20.240331434 75.0149541451
246 14 2 30.6589526225 20.0108250416 75.0526723207
247 14 2 29.7523640319 19.5634029021 75.2793010206
248 14 2 29.025649967 18.9492011521 75.689292349
249 14 2 28.539247754 18.2345574439 76.2603853963
250 14 2 28.3316909361 17.4949644458 76.955635262
251 14 2 28.416097044 16.8081888872 77.7267804833
252 14 2 28.7789719681 16.2471833291 78.5186419386
253 15 1 43.9257426334 3.78420707289 78.3463526618
254 15 1 48.6462406273 4.67114169819 81.0754984479
255 15 2 43.9854004493 3.55683509505 77.8442326395
256 15 2 44.2532485734 3.30504659785 76.8755686388
257 15 2 44.7143068364 3.28731149319 75.9479044995
258 15 2 45.3409219318 3.49285524493 75.1488079475
259 15 2 46.0903504904 3.89055204598 74.5541281166
260 15 2 46.9086550238 4.43176185235 74.221082103
261 15 2 47.735620183 5.05476379321 74.1830397797
262 15 2 48.5102412258 5.69038186326 74.4464822218
263 15 2 49.1762844364 6.26829013078 74.9904109737
264 15 2 49.6874126782 6.72342275828 75.7682620025
265 15 2 50.0114088999 7.0019045797 76.7121498849
266 15 2 50.1331126338 7.06596167784 77.7390553823
267 15 2 50.0558018317 6.89736437589 78.7583924221
268 15 2 49.8008940885 6.4990888238 79.6802647767
269 15 2 49.4059944854 5.89504573012 80.4236598639
270 15 2 48.9214679877 5.12790096486 80.9238328274
271 16 1 11.6000002891 18.9093357058 35.8167284293
272 16 1 11.4547222113 13.5455792954 34.5025737537
273 16 2 11.9839496528 19.0475621202 36.1920388775
274 16 2 12.6078942213 19.1277421785 37.0152729541
275 16 2 13.0729239646 18.9611832056 37.9260174065
276 16 2 13.3513432176 18.5517903801 38.836143906
277 16 2 13.4324653627 17.9256025368 39.6575804487
278 16 2 13.3235868862 17.1284187972 40.3103388832
279 16 2 13.0493223233 16.2216241014 40.7298056167
280 16 2 12.6493607091 15.2765941356 40.8726309716
281 16 2 12.1748480287 14.3681896283 40.7206803924
282 16 2 11.6837253979 13.5679329956 40.2826873623
283 16 2 11.2354478847 12.9374892638 39.5934573693
284 16 2 10.8855653396 12.523045467 38.7106954789
285 16 2 10.6806591745 12.3511008228 37.709746672
286 16 2 10.6540965917 12.4260513991 36.676728351
287 16 2 10.8229892527 12.7297894242 35.7006809688
288 16 2 11.1866335961 13.2233537621 34.8654522294
289 17 1 13.5996610809 55.1725640174 23.6108973618
290 17 1 14.300968296 54.6948025583 18.152151788
291 17 2 14.0366480735 55.0211712393 23.9166818988
292 17 2 14.8446290292 54.5439269857 24.3558341605
293 17 2 15.5889013978 53.8587055829 24.5793968622
294 17 2 16.2162570341 53.0344815869 24.5563811916
295 17 2 16.6841444406 52.1528992685 24.2782732954
296 17 2 16.9645472226 51.3008309563 23.7598102954
297 17 2 17.0465377078 50.5624588562 23.0376370383
298 17 2 16.9372729745 50.0116020681 22.1669660164
299 17 2 16.6613425031 49.7049881726 21.2165448965
300 17 2 16.2585269104 49.6770826633 20.2623903534
301 17 2 15.7801720529 49.9369475092 19.3808593538
302 17 2 15.2845089893 50.4674151809 18.6416894222
303 17 2 14.8313463749 51.2266534244 18.1016422523
304 17 2 14.4766190626 52.1519781597 17.7993300305
305 17 2 14.2672897909 53.1655669668 17.7516960379
306 17 2 14.2370686551 54.1815523917 17.9524703156
307 18 1 15.8685465176 3.95709541542 32.0726089842
308 18 1 14.4941709829 6.91784820294 27.6158135119
309 18 2 15.900483511 3.40997299937 31.9888314314
310 18 2 15.7476159419 2.41695270969 31.7358645921
311 18 2 15.3382030721 1.54106741374 31.3634990975
312 18 2 14.7173564881 0.861342153373 30.8881328169
313 18 2 13.9494593945 0.438922507499 30.3355518657
314 18 2 13.1122982568 0.311501335978 29.7385802704
315 18 2 12.2899727729 0.489883176197 29.1340881457
316 18 2 11.5652304106 0.956999438362 28.5596310828
317 18 2 11.0119241969 1.66946416184 28.0500270572
318 18 2 10.6882812122 2.5615285295 27.6341828633
319 18 2 10.6315953473 3.55107369668 27.3324593376
320 18 2 10.8548280651 4.54709570438 27.1548155224
321 18 2 11.3454269978 5.45800024691 27.0999009264
322 18 2 12.0664700617 6.19995124801 27.1551786178
323 18 2 12.9600308065 6.70451229516 27.2980679323
324 18 2 13.9524582564 6.92488443567 27.4980026404
325 19 1 60.13601621 36.4763208712 29.4268852111
326 19 1 61.1911016038 33.9814281907 34.2414772381
327 19 2 59.782607955 36.9024312574 29.4571198287
328 19 2 58.988596176 37.5448516402 29.6311639548
329 19 2 58.0895824397 37.9432226862 29.9575453616
330 19 2 57.1726527207 38.0693933085 30.4231319548
331 19 2 56.3265259878 37.9200227613 31.0021034591
332 19 2 55.6334677068 37.51688514 31.6583048676
333 19 2 55.1617915631 36.9048847306 32.3485418744
334 19 2 54.9596328522 36.1479631037 33.0265179193
335 19 2 55.0505610757 35.3232710118 33.6470539964
336 19 2 55.4314316446 34.5141363041 34.1702065991
337 19 2 56.0726725002 33.8024688159 34.5649084644
338 19 2 56.9209795279 33.2612945056 34.8118002705
339 19 2 57.904175085 32.9480993346 34.9049951875
340 19 2 58.9377867998 32.8995895747 34.8526154463
341 19 2 59.9327470028 33.1283461302 34.6760520186
342 19 2 60.8035110062 33.6216778215 34.4080148873
343 20 1 6.06413391114 63.0145195904 10.4135468057
344 20 1 9.38437815488 62.667392087 14.8150774167
345 20 2 6.13448421927 63.4684567888 10.1031060834
346 20 2 6.24761340284 64.4281261045 9.72935937301
347 20 2 6.34399260185 65.4569145749 9.65349538691
348 20 2 6.43391654301 66.4632417353 9.88299340921
349 20 2 6.5282683325 67.3575744094 10.3974997931
350 20 2 6.63752749 68.0605874189 11.1506831413
351 20 2 6.77081476841 68.5103938618 12.0744572894
352 20 2 6.93506082164 68.6681859376 13.0851871771
353 20 2 7.13437449402 68.5217721751 14.0913119613
354 20 2 7.36966831013 68.0866886521 15.0016905414
355 20 2 7.63857530059 67.4047829234 15.7339088278
356 20 2 7.93566474505 66.5403997284 16.2217915651
357 20 2 8.25293716779 65.5745161396 16.4214340303
358 20 2 8.58055346855 64.5973607193 16.3152038309
359 20 2 8.90773173026 63.700189427 15.9133480501
360 20 2 9.22372996193 62.9669678828 15.2530592528
361 21 1 53.5901607864 47.9882733354 61.5008579055
362 21 1 50.2179543941 52.2948281331 62.2753260356
363 21 2 54.1284038652 48.096118765 61.5786096862
364 21 2 55.0915100036 48.4780563585 61.5791117353
365 21 2 55.921474356 49.0731739459 61.4046289507
366 21 2 56.5420952382 49.839205729 61.0860774807
367 21 2 56.8962520636 50.7183075377 60.6675049492
368 21 2 56.9511117323 51.6423291713 60.2020756326
369 21 2 56.7011212802 52.5390261067 59.7472246779
370 21 2 56.1685140171 53.3386443946 59.3594230428
371 21 2 55.4012830196 53.9802785445 59.0890303187
372 21 2 54.4688066905 54.417422898 58.9757045884
373 21 2 53.4555251032 54.6222104951 59.0447876982
374 21 2 52.4532435142 54.5879530731 59.3049954162
375 21 2 51.5527645595 54.3297506838 59.7476230132
376 21 2 50.8356118374 53.8831153643 60.3473386756
377 21 2 50.3665992497 53.3007343097 61.0644924324
378 21 2 50.1879233884 52.6476675758 61.8487301444
379 22 1 7.29202001112 54.9910149894 78.7853429273
380 22 1 2.25036020833 56.1089158706 76.8232126783
381 22 2 7.63645641833 55.4250072953 78.8052383522
382 22 2 8.21319481986 56.2652846526 78.6188066216
383 22 2 8.64693031335 57.0879453218 78.1621306357
384 22 2 8.8862757075 57.8321486186 77.4821856036
385 22 2 8.89756194897 58.4442050382 76.6462971115
386 22 2 8.66790696669 58.8824699106 75.7360045751
387 22 2 8.20638983813 59.121139201 74.8396291398
388 22 2 7.54322325566 59.1526014782 74.0442234445
389 22 2 6.72699972044 58.9881316764 73.427637006
390 22 2 5.82026246579 58.6568634154 73.0514204441
391 22 2 4.89380480862 58.2031335484 72.9552153066
392 22 2 4.02021752781 57.682440977 73.1531408484
393 22 2 3.26727240879 57.1563880741 73.632507099
394 22 2 2.69174502633 56.6870657926 74.3549715198
395 22 2 2.33423980277 56.3313942408 75.2600338235
396 22 2 2.21548902334 56.1359345668 76.2705504138
397 23 1 39.1832967639 37.2314047851 13.1275975056
398 23 1 37.1118955078 33.6855616175 9.43242712672
399 23 2 38.8697699202 37.3088547343 13.5782459403
400 23 2 38.11317281 37.489631767 14.2625927007
401 23 2 37.1904745909 37.6876552396 14.6902195379
402 23 2 36.1790504302 37.8671585256 14.8253111688
403 23 2 35.1643626278 37.9940630641 14.6587161123
404 23 2 34.2321709555 38.0390845294 14.2087808225
405 23 2 33.4607158837 37.9804020192 13.5196774585
406 23 2 32.9135871709 37.8056469711 12.6573777101
407 23 2 32.6339278279 37.5130305247 11.7036396547
408 23 2 32.6405017471 37.1115065706 10.748555727
409 23 2 32.9259834242 36.619955628 9.88234103414
410 23 2 33.4576256581 36.0654639353 9.18711049031
411 23 2 34.1802443709 35.4808546121 8.72939426139
412 23 2 35.0212484893 34.9016959195 8.55407371827
413 23 2 35.8972564264 34.3630593082 8.68029061987
414 23 2 36.721696091 33.8963227495 9.09970239299
415 24 1 65.907061059 23.0592089151 55.2983167328
416 24 1 67.2083340655 28.4245173201 55.4936250617
417 24 2 66.3279330003 22.7212305689 55.171750408
418 24 2 67.1457075516 22.2393180008 54.7564733066
419 24 2 67.9506576515 21.9969810002 54.1508512081
420 24 2 68.6840005493 22.0245564789 53.4194841331
421 24 2 69.2934802996 22.3277795474 52.6384334204
422 24 2 69.7381307518 22.8872607754 51.8882889397
423 24 2 69.9920095053 23.6602534862 51.2468235401
424 24 2 70.04656249 24.5845500019 50.7819042632
425 24 2 69.9114036466 25.5841517075 50.5453064432
426 24 2 69.6134386423 26.576196121 50.5679945238
427 24 2 69.1944124903 27.4785095874 50.8572997318
428 24 2 68.7071046041 28.2170971879 51.3962518556
429 24 2 68.2105180948 28.7328871784 52.1451260344
430 24 2 67.764501795 28.9871152218 53.045063573
431 24 2 67.4242951981 28.9648576533 54.023436755
432 24 2 67.2354935256 28.6763917325 55.0004686645
433 25 1 70.0830406929 39.706425887 28.241130842
434 25 1 70.6797082898 34.2271964795 27.866933113
435 25 2 69.5779946131 39.8957053954 28.1127434864
436 25 2 68.6633735974 40.1181542316 27.6798059343
437 25 2 67.8504573686 40.1411880506 27.0378661714
438 25 2 67.2020512251 39.9490895991 26.2529345379
439 25 2 66.7659658107 39.5457503554 25.4040547013
440 25 2 66.5706593021 38.9543158314 24.5760990366
441 25 2 66.6226435225 38.2150759209 23.8520327366
442 25 2 66.9058904059 37.3817925839 23.3053517562
443 25 2 67.3832929127 36.516799587 22.9933838523
444 25 2 68.0000472373 35.6853209479 22.9520633126
445 25 2 68.6886480282 34.94952594 23.1926556405
446 25 2 69.3750413207 34.3628625295 23.7007307354
447 25 2 69.9853743575 33.965185736 24.437478157
448 25 2 70.4527270703 33.7791249542 25.3432445941
449 25 2 70.7232116654 33.8080213449 26.3429711035
450 25 2 70.7608843518 34.0356232971 27.3530345328
451 26 1 51.2735901059 32.7626579002 43.399411108
452 26 1 47.7374990355 36.9459504048 44.1164291161
453 26 2 51.0802050705 32.2650746756 43.549059866
454 26 2 50.6624800169 31.446798536 44.0279961354
455 26 2 50.1898481833 30.8396636409 44.7218667143
456 26 2 49.6870754275 30.5000634879 45.561712714
457 26 2 49.1816748717 30.4600064982 46.4652699767
458 26 2 48.7013991552 30.7241985339 47.3444672331
459 26 2 48.2717108551 31.269613972 48.1134535632
460 26 2 47.9134616409 32.0475944277 48.6964234785
461 26 2 47.6409917004 32.9882838366 49.0345263898
462 26 2 47.4608226696 34.0069956482 49.0912306803
463 26 2 47.3710632036 35.0119317782 48.8556534658
464 26 2 47.3615813672 35.9125497592 48.34355254
465 26 2 47.4149281337 36.6278154441 47.5958900936
466 26 2 47.5079278172 37.0935890522 46.6750991206
467 26 2 47.6137904747 37.2684713388 45.6593928172
468 26 2 47.704553737 37.1375770255 44.6356356584
469 27 1 48.1322274833 51.4133877078 10.98034372
470 27 1 53.3174856337 50.3642935359 12.5710952385
471 27 2 47.7422457067 51.2758488029 11.3496387939
472 27 2 47.1268741064 50.8127467004 12.0426786538
473 27 2 46.7149521394 50.1238879999 12.6978458043
474 27 2 46.5524691178 49.2768901982 13.2719921294
475 27 2 46.6626786605 48.3537847482 13.7293543449
476 27 2 47.043979188 47.4435401121 14.0448137263
477 27 2 47.6700599023 46.6339525229 14.2061856128
478 27 2 48.4922989454 46.0036435929 14.2153300072
479 27 2 49.444195152 45.6148941638 14.087982041
480 27 2 50.4474294528 45.5079675744 13.85231776
481 27 2 51.4190034485 45.6974397649 13.5463859522
482 27 2 52.2788044921 46.170870719 13.2146401031
483 27 2 52.9569077422 46.8899383379 12.903886579
484 27 2 53.3999496258 47.7939313975 12.6590183518
485 27 2 53.5759917852 48.805283214 12.5189231248
486 27 2 53.4774321739 49.8366416397 12.5129388223
487 28 1 32.8871241646 41.8332863712 40.2856524682
488 28 1 29.0557837472 38.7897816341 42.8500043518
489 28 2 32.8064209228 42.3811626463 40.3121130426
490 28 2 32.4391588567 43.3496578666 40.28791399
491 28 2 31.8153079902 44.1704721173 40.185327083
492 28 2 30.9850565491 44.7708883016 40.0315969257
493 28 2 30.0174056195 45.0982780175 39.8586296928
494 28 2 28.993879884 45.1248984956 39.700084967
495 28 2 28.0010968643 44.8504212791 39.588307758
496 28 2 27.1228719656 44.3019621608 39.5513803413
497 28 2 26.4325789267 43.5316096519 39.610562634
498 28 2 25.9864619998 42.611677253 39.77835441
499 28 2 25.8185094367 41.6281122718 40.057355979
500 28 2 25.9373555514 40.6726619559 40.4400311756
501 28 2 26.3254937247 39.8345109763 40.9093942599
502 28 2 26.9408720859 39.1921524829 41.4405581232
503 28 2 27.7207264288 38.8062336638 42.0030026806
504 28 2 28.5873010009 38.7140279164 42.5633566957
505 29 1 49.6497500388 40.2543787267 25.7730862485
506 29 1 53.3847931379 43.3932675342 28.3643834456
507 29 2 49.3476728209 40.5185418068 25.3905306192
508 29 2 48.748913148 41.1677182452 24.8487679247
509 29 2 48.1648370957 41.9761580918 24.5681789178
510 29 2 47.6617283835 42.8818780858 24.5664680199
511 29 2 47.2984907739 43.8140281412 24.8359206584
512 29 2 47.1212791526 44.6993491423 25.344106429
513 29 2 47.1592926333 45.4688503166 26.0368350405
514 29 2 47.4221131372 46.0640975593 26.843095615
515 29 2 47.898832026 46.4425395456 27.6815291397
516 29 2 48.5590443954 46.5813861705 28.4678441231
517 29 2 49.3556204009 46.4796858058 29.1224995398
518 29 2 50.2290010167 46.1584120383 29.5779547817
519 29 2 51.1126266824 45.6585519838 29.7848258045
520 29 2 51.9390040285 45.0373704208 29.7163863508
521 29 2 52.6458577168 44.3631902589 29.3710039775
522 29 2 53.1818066712 43.7091650885 28.7722888483
523 30 1 32.607239569 8.78924574112 23.9942419034
524 30 1 30.0041677042 5.72252525772 27.7806958388
525 30 2 32.6100930229 9.33410842142 24.0967021663
526 30 2 32.3841273623 10.3208786467 24.3173241369
527 30 2 31.8785650845 11.1880173706 24.5740871169
528 30 2 31.1417941023 11.8568560503 24.8626583413
529 30 2 30.2432763838 12.2668006618 25.1758058086
530 30 2 29.2672166799 12.3808546835 25.5040574585
531 30 2 28.3048874861 12.1889912301 25.8365645249
532 30 2 27.4463097987 11.7090669769 26.1620903718
533 30 2 26.7720479415 10.9851945707 26.4700346827
534 30 2 26.3458663429 10.0837218807 26.751399651
535 30 2 26.2089175789 9.08718456727 26.9996101064
536 30 2 26.3759914256 8.08678317705 27.2111128235
537 30 2 26.8341668108 7.17407045699 27.3857003895
538 30 2 27.5439895351 6.43260656611 27.5265301087
539 30 2 28.4430684166 5.93034279038 27.6398362229
540 30 2 29.4517620808 5.71342796458 27.7343616771
541 31 1 12.078459687 9.049336013 62.3969895992
542 31 1 14.4811499982 13.7013537758 60.635228814
543 31 2 12.1615494721 8.93179888071 62.9323985066
544 31 2 12.54268442 8.7486650943 63.8782569416
545 31 2 13.1851559692 8.64225500089 64.6840839774
546 31 2 14.0295671395 8.63971691697 65.2844283326
547 31 2 14.998114694 8.75873150303 65.6325679227
548 31 2 16.0016806961 9.00590021854 65.7047684536
549 31 2 16.9479553714 9.37614361662 65.5024467388
550 31 2 17.7498508967 9.85316432201 65.0520415609
551 31 2 18.3334392226 10.4109324933 64.402603847
552 31 2 18.6446904172 11.0160583733 63.621325808
553 31 2 18.6543973505 11.6308356764 62.7874165478
554 31 2 18.3608378457 12.2166784154 61.9848823657
555 31 2 17.7899316514 12.7376379115 61.2948698063
556 31 2 16.9928779257 13.1636794197 60.7882693693
557 31 2 16.0414885697 13.4734197164 60.5192540294
558 31 2 15.0216427647 13.6560761222 60.5203415149
559 32 1 12.6220935777 45.0396735013 51.2273389454
560 32 1 7.14850396999 44.8130379558 51.938987874
561 32 2 12.9184457903 44.7625840078 51.605199193
562 32 2 13.3393862419 44.3644864154 52.4641389199
563 32 2 13.5452176658 44.1403059006 53.4545057877
564 32 2 13.5063028307 44.0948910929 54.48885251
565 32 2 13.2153124723 44.2167966053 55.4757231543
566 32 2 12.6878933367 44.4793262512 56.3279891055
567 32 2 11.9612420211 44.8429663298 56.9707906067
568 32 2 11.0907146034 45.2589871946 57.3483600257
569 32 2 10.1447810835 45.6738848306 57.4291049257
570 32 2 9.19878452627 46.0342576019 57.2084876314
571 32 2 8.32807374204 46.2916736685 56.7094388261
572 32 2 7.60113544424 46.4070854188 55.9802674811
573 32 2 7.07335186841 46.3543885549 55.0902576223
574 32 2 6.78195282947 46.1228014299 54.123353276
575 32 2 6.74262232362 45.7178477663 53.1705071957
576 32 2 6.94806897398 45.1608531827 52.3213907614
577 33 1 5.26963067916 17.5296334002 5.25808082553
578 33 1 5.94329375254 13.5929881711 1.44140773692
579 33 2 5.51902825201 17.42987981 5.74308769142
580 33 2 5.87584575198 17.0358312572 6.6323891144
581 33 2 6.07632207409 16.3974595007 7.42342688589
582 33 2 6.11859700875 15.5647299281 8.03842631686
583 33 2 6.01522997999 14.6053231227 8.4156581425
584 33 2 5.79205528756 13.5984659588 8.51506497975
585 33 2 5.48582737951 12.6277102841 8.32191245067
586 33 2 5.14087078253 11.773317392 7.84813218162
587 33 2 4.80504003979 11.1049424194 7.1312342674
588 33 2 4.52535789722 10.6752854669 6.23088832638
589 33 2 4.34372930595 10.5152881257 5.22348477426
590 33 2 4.29312189795 10.6313132342 4.19517204185
591 33 2 4.39456107454 11.004564922 3.23400437584
592 33 2 4.65521359725 11.5928018038 2.42191592961
593 33 2 5.06773435662 12.3341871683 1.8272526841
594 33 2 5.61093585936 13.1529252294 1.49854289432