LAMMPS input file for bananas

4320 atoms

2 atom types

0 100.793683992 xlo xhi
0 100.793683992 ylo yhi
0 100.793683992 zlo zhi

Masses

 1 1
 2 1

Atoms

1 1 1 17.0599826742 53.98427824 28.6811210855
2 1 1 14.2064744618 50.6708248451 32.056992609
3 1 2 17.0420986156 54.5226813662 28.8122081642
4 1 2 16.7764646582 55.491888661 29.064251477
5 1 2 16.2318266499 56.3349109204 29.3214146961
6 1 2 15.4584670671 56.974272143 29.5794499533
7 1 2 14.5275157464 57.3510594867 29.8340298963
8 1 2 13.5244665901 57.4302930164 30.0811421155
9 1 2 12.5413850253 57.2041140322 30.3174548645
10 1 2 11.6685164869 56.6925013682 30.5406207396
11 1 2 10.9860607866 55.9414503758 30.7494906395
12 1 2 10.5568621151 55.0187805699 30.9442185031
13 1 2 10.4206809617 54.0079540616 31.1262472776
14 1 2 10.5905700523 53.0004682098 31.2981773988
15 1 2 11.0516846277 52.0875158815 31.4635297673
16 1 2 11.7626355046 51.3516734658 31.6264248286
17 1 2 12.6592615883 50.8593742563 31.791207005
18 1 2 13.6604779853 50.6548532348 31.9620487134
19 2 1 57.4115734734 69.8556076001 35.9290776493
20 2 1 55.0035454597 69.2343737065 40.8619734111
21 2 2 57.8146448544 70.2359077536 35.9121412078
22 2 2 58.406269686 71.0835131151 35.9828180849
23 2 2 58.748196744 72.0382995744 36.194758443
24 2 2 58.8177807006 73.0106522108 36.5456693071
25 2 2 58.6171995741 73.9093549936 37.0205909123
26 2 2 58.1732562077 74.6499048794 37.5932602456
27 2 2 57.5349352626 75.1622140386 38.2285048502
28 2 2 56.7689383967 75.3969981738 38.8854487004
29 2 2 55.9536045867 75.3302686517 39.5212379425
30 2 2 55.17176974 74.9655190033 40.0949469085
31 2 2 54.503216423 74.3334064972 40.5713083817
32 2 2 54.0174018935 73.4889578121 40.9239281093
33 2 2 53.7671272572 72.5065535018 41.1376905679
34 2 2 53.783724788 71.4731484066 41.2101367028
35 2 2 54.0742020752 70.4803459522 41.1516880648
36 2 2 54.6206033003 69.6160487419 40.9846969131
37 3 1 65.3696253474 34.8147918828 89.1075624574
38 3 1 62.848864221 30.9087949449 92.0920125451
39 3 2 65.2333823825 35.3352954909 89.2413362834
40 3 2 64.7587895362 36.2272238178 89.4708477232
41 3 2 64.0360720879 36.9419644529 89.6715348568
42 3 2 63.1296908889 37.4132376614 89.844233138
43 3 2 62.1208472508 37.5969551136 89.9923291301
44 3 2 61.1000816627 37.4752384188 90.1214518289
45 3 2 60.1590212672 37.058048692 90.2389595953
46 3 2 59.382028292 36.3822786258 90.3532694605
47 3 2 58.8385106579 35.5083898191 90.4730899354
48 3 2 58.5765956323 34.514901865 90.6066272539
49 3 2 58.6187431574 33.4912354987 90.7608373962
50 3 2 58.9596986867 32.5295621375 90.9407920697
51 3 2 59.5669721229 31.7164027017 91.1492164367
52 3 2 60.3837992031 31.1247414642 91.3862407231
53 3 2 61.3343154098 30.8073737294 91.6493883486
54 3 2 62.3304708192 30.7920936817 91.9338016601
55 4 1 17.964190382 40.971057333 39.3994070983
56 4 1 21.7433997924 38.3508496342 42.4604655605
57 4 2 17.863258223 41.4947810633 39.5507601347
58 4 2 17.649720654 42.3786271702 40.0474167334
59 4 2 17.4358472612 43.0737837392 40.7852958073
60 4 2 17.2586964744 43.5230104855 41.7019543807
61 4 2 17.1519795559 43.6914829703 42.7186542048
62 4 2 17.1429879094 43.5699667555 43.747538538
63 4 2 17.2501055408 43.1756590976 44.6996400531
64 4 2 17.4811334062 42.5506214643 45.4929899719
65 4 2 17.8325783746 41.7579457438 46.0600892995
66 4 2 18.2899716182 40.8760035878 46.3540611781
67 4 2 18.8291874069 39.9913030451 46.3529235864
68 4 2 19.4186421044 39.190603584 46.061592943
69 4 2 20.0221729323 38.5530081989 45.5114359873
70 4 2 20.6023341101 38.1427533834 44.7574107853
71 4 2 21.1238099389 38.0033541459 43.8730574488
72 4 2 21.5566337323 38.1536377328 42.9437951508
73 5 1 43.1904468178 31.4582170399 51.1733249769
74 5 1 40.9315830908 27.481135722 54.2714453611
75 5 2 42.8943039809 31.6038302736 50.7278165097
76 5 2 42.3365623197 31.6441154975 49.8556058979
77 5 2 41.8028478046 31.3800619146 49.0077412077
78 5 2 41.3238568353 30.8348637077 48.2682977835
79 5 2 40.9252979066 30.0573406407 47.7114686608
80 5 2 40.6255483479 29.1174882674 47.3948020701
81 5 2 40.4339792785 28.1000980242 47.3539560686
82 5 2 40.3501014552 27.097028717 47.5994484042
83 5 2 40.3636098657 26.1988338366 48.1156978505
84 5 2 40.4553230026 25.4865078502 48.8624443944
85 5 2 40.5989312069 25.0241037721 49.7784188282
86 5 2 40.7633947228 24.8528949025 50.7869272744
87 5 2 40.9157728886 24.9876128769 51.8028416277
88 5 2 41.02422659 25.4151049164 52.7403587539
89 5 2 41.0609203101 26.0955326686 53.5208212169
90 5 2 41.0045592627 26.9660033671 54.079886693
91 6 1 93.7823918333 85.068350787 35.9297459428
92 6 1 89.3465690316 85.204748066 39.2195579306
93 6 2 94.2563844341 85.2263431462 36.1700603555
94 6 2 95.0150002608 85.7079233621 36.6858437734
95 6 2 95.5464080346 86.385939309 37.2614740061
96 6 2 95.8003156146 87.1910864756 37.8620728674
97 6 2 95.751724261 88.0424726795 38.4504863472
98 6 2 95.403207203 88.854991174 38.9906711005
99 6 2 94.7846750966 89.5470779 39.4509797016
100 6 2 93.9506497474 90.0481458322 39.8070452228
101 6 2 92.9752945942 90.3050187978 40.0440022144
102 6 2 91.9456549098 90.2867783428 40.1578416508
103 6 2 90.9537238569 89.9875818658 40.1557763426
104 6 2 90.088057557 89.4271951561 40.0555835081
105 6 2 89.4257034372 88.6491907946 39.8839844271
106 6 2 89.0251775625 87.7169766294 39.6742088682
107 6 2 88.9211310534 86.7080163201 39.4629662839
108 6 2 89.1211917284 85.7067687324 39.2870998419
109 7 1 23.2346575228 46.2599616252 79.6840689806
110 7 1 25.3582323511 41.1674230463 79.9569642586
111 7 2 23.0692113549 46.4703808325 80.1695923176
112 7 2 22.646543557 46.658496925 81.0966383141
113 7 2 22.1222596485 46.5603281204 81.9848608539
114 7 2 21.5577840849 46.1783684631 82.7651967877
115 7 2 21.0182046836 45.5409787753 83.3784165417
116 7 2 20.5663400434 44.6998016435 83.7805227354
117 7 2 20.2570137968 43.7250543352 83.9467604249
118 7 2 20.1320575831 42.6991286826 83.8738734502
119 7 2 20.2164982056 41.7090812869 83.5804012253
120 7 2 20.5162765058 40.8386985424 83.10498892
121 7 2 21.0177058712 40.1608597301 82.5028650564
122 7 2 21.688719734 39.7308942662 81.8408075762
123 7 2 22.4817943525 39.5815385737 81.1910572104
124 7 2 23.3382804733 39.7199522451 80.6247329292
125 7 2 24.1937490543 40.1270654643 80.205349638
126 7 2 24.9838637992 40.7593171697 79.9830289641
127 8 1 59.3218650176 70.0357450062 0.147841397552
128 8 1 56.534720798 66.6254791973 3.48249359426
129 8 2 59.2682504421 70.5745331562 0.267065534217
130 8 2 58.9382325527 71.5312282213 0.489040209227
131 8 2 58.3368799449 72.345928933 0.708329521693
132 8 2 57.518942629 72.9441320265 0.924157270826
133 8 2 56.5589117323 73.2710674159 1.13606276808
134 8 2 55.5442298326 73.2966903418 1.34394282769
135 8 2 54.5673208002 73.0184198703 1.54806117177
136 8 2 53.7171656098 72.4613741386 1.74902439274
137 8 2 53.071191962 71.6760809037 1.94772666408
138 8 2 52.6882169556 70.7338720723 2.14526823878
139 8 2 52.6030860661 69.7203819886 2.3428551642
140 8 2 52.8234970738 68.7277420923 2.54168935414
141 8 2 53.3292984319 67.8461833842 2.74285903755
142 8 2 54.0743260258 67.1558121118 2.9472395694
143 8 2 54.9906109088 66.7193082987 3.15541364441
144 8 2 55.9945744902 66.5762126283 3.36761818597
145 9 1 37.5063102216 42.3290755943 41.9065608611
146 9 1 34.0142983413 44.1159433782 38.0167089858
147 9 2 37.9264475155 42.0197263435 41.7190261086
148 9 2 38.5402216928 41.3226900441 41.2598184564
149 9 2 38.8863233712 40.5349532504 40.6826405088
150 9 2 38.937488749 39.737155318 40.0235877231
151 9 2 38.6933366803 39.0108526485 39.3262182294
152 9 2 38.1804034149 38.4310850413 38.6375826232
153 9 2 37.4497238904 38.0595360165 38.0039354298
154 9 2 36.5721800338 37.938910527 37.4665191273
155 9 2 35.6320400635 38.0890425161 37.0578050054
156 9 2 34.7192776666 38.5050871067 36.7985334942
157 9 2 33.9213711371 39.1579621986 36.695823729
158 9 2 33.3153299641 39.9969992244 36.7425246605
159 9 2 32.960675622 40.9545614543 36.9178668539
160 9 2 32.8940163475 41.9522089025 37.189355567
161 9 2 33.1257103968 42.907847923 37.5157325594
162 9 2 33.6389219178 43.7432138257 37.8507366706
163 10 1 73.8597336166 9.95956092522 61.4860845058
164 10 1 73.0745784307 8.12705064974 66.6381159969
165 10 2 73.9461354971 10.5055074608 61.4429720555
166 10 2 73.9136930842 11.5397736118 61.4948471928
167 10 2 73.641722172 12.5121300157 61.7272366457
168 10 2 73.1658035039 13.3374252651 62.1344702198
169 10 2 72.5401071164 13.9439121838 62.6949411462
170 10 2 71.8324548847 14.27978739 63.373075481
171 10 2 71.1181387402 14.3179130363 64.1225745751
172 10 2 70.4730580121 14.0582903521 64.8906350722
173 10 2 69.9668014064 13.5280595308 65.6227617939
174 10 2 69.6563041815 12.7790259748 66.2677348293
175 10 2 69.5806586514 11.8829383704 66.7822780931
176 10 2 69.7575510259 10.9249489879 67.135003825
177 10 2 70.1816493595 9.99585227881 67.3092735004
178 10 2 70.8250895446 9.18380920491 67.3047143871
179 10 2 71.6400150499 8.56631160192 67.1372535191
180 10 2 72.5629389155 8.20311900585 66.83766599
181 11 1 44.631781231 49.7389677688 82.3345566555
182 11 1 39.3871854751 50.7044308615 80.892305833
183 11 2 44.7026023893 49.5676720397 82.8570733775
184 11 2 44.7010439817 49.4341312464 83.8845043675
185 11 2 44.5133047725 49.543329341 84.8975590435
186 11 2 44.1413041852 49.8738040503 85.8063230617
187 11 2 43.6037565756 50.3839243292 86.5303878928
188 11 2 42.934465468 51.015684919 87.0061798449
189 11 2 42.1792424545 51.6999933719 87.1927546352
190 11 2 41.3917315908 52.3629676427 87.0755293526
191 11 2 40.6285198837 52.93267024 86.6676116502
192 11 2 39.9439795369 53.3456651361 86.0086050186
193 11 2 39.3853120698 53.5527997913 85.1609990328
194 11 2 38.9882460254 53.5236852769 84.2044735953
195 11 2 38.7737804089 53.2494661442 83.2286363252
196 11 2 38.7462706844 52.7436275758 82.3248550635
197 11 2 38.8930317863 52.0407662464 81.5779299389
198 11 2 39.1854943288 51.193436929 81.0583640622
199 12 1 76.1756158099 51.0829489333 5.25392367366
200 12 1 73.464278 47.9280082155 8.88889099244
201 12 2 76.2194329255 51.617236597 5.39533916377
202 12 2 76.0692297933 52.5979958328 5.69366843088
203 12 2 75.6327677117 53.47609431 6.02817392692
204 12 2 74.9526583631 54.1702895189 6.38733168764
205 12 2 74.093721227 54.6161012412 6.75737076075
206 12 2 73.1370754577 54.7716887495 7.12352839142
207 12 2 72.1727460903 54.6216644778 7.47139560792
208 12 2 71.2914584994 54.1784965572 7.78823056089
209 12 2 70.5763690236 53.4813723785 8.06411990886
210 12 2 70.0954854874 52.5926267672 8.2928823928
211 12 2 69.89546847 51.5920603296 8.47263224137
212 12 2 69.9973783181 50.5696658421 8.60595105398
213 12 2 70.3947555516 49.6174256489 8.69965249483
214 12 2 71.0542096278 48.8209277182 8.76416124569
215 12 2 71.9184624005 48.2515645271 8.81256282399
216 12 2 72.9115688693 47.9600258282 8.8594108729
217 13 1 35.6546734714 47.4229459431 13.8619731182
218 13 1 35.6807364978 45.0936965505 18.8711555912
219 13 2 35.2958034778 47.841078491 13.8006617161
220 13 2 34.4719139821 48.4688467668 13.7769319454
221 13 2 33.5166629107 48.8545768522 13.8871939202
222 13 2 32.5183832983 48.9718660224 14.1384529044
223 13 2 31.5693301159 48.8187792245 14.5248626616
224 13 2 30.757271477 48.4180254524 15.0282583235
225 13 2 30.1574888088 47.8148878828 15.6198120693
226 13 2 29.825915151 47.0730964345 16.2626607046
227 13 2 29.7940370087 46.269018957 16.9152656427
228 13 2 30.0660244421 45.4847005045 17.5351990363
229 13 2 30.6183509762 44.8003851493 18.0830109617
230 13 2 31.4019379761 44.2872019485 18.5258251745
231 13 2 32.3466280338 44.0006817205 18.840335691
232 13 2 33.367579628 43.9756955599 19.0149310667
233 13 2 34.3730002023 44.2232764298 19.0507527481
234 13 2 35.2725128111 44.7296135373 18.961591033
235 14 1 11.5616237332 3.37130047276 18.2636686157
236 14 1 9.54077097292 0.0908420626954 22.2225494932
237 14 2 11.6496811539 3.89651298636 18.4178739796
238 14 2 11.5933301974 4.86350039099 18.7855830224
239 14 2 11.2608091718 5.73218624327 19.2419432625
240 14 2 10.6889783267 6.42114733873 19.7632801063
241 14 2 9.93651036185 6.8653419041 20.3199965163
242 14 2 9.07854256782 7.02203798114 20.8792707023
243 14 2 8.19982826255 6.87470833039 21.4080477393
244 14 2 7.38701175304 6.4345368449 21.8760524363
245 14 2 6.72073093837 5.73939916826 22.2585488385
246 14 2 6.26826738065 4.8504104309 22.5385948436
247 14 2 6.07741377052 3.84635476935 22.7085864292
248 14 2 6.17211775113 2.8165043627 22.7709507391
249 14 2 6.55029915445 1.85248251212 22.7379248556
250 14 2 7.18403960303 1.03991242186 22.6304404222
251 14 2 8.02212719552 0.450612872986 22.4762157803
252 14 2 8.99472433454 0.13605213348 22.307229516
253 15 1 55.5605216735 94.638469609 29.6317705509
254 15 1 53.5369593991 94.9147904888 24.4988538796
255 15 2 55.2636210029 94.9078785225 30.0147201783
256 15 2 54.7222917284 95.5892217548 30.5770226125
257 15 2 54.2267531182 96.4433481721 30.8906458901
258 15 2 53.8041998683 97.3888448548 30.9212201458
259 15 2 53.4751742543 98.3359707279 30.6601746765
260 15 2 53.2516937576 99.1948362198 30.1255191373
261 15 2 53.1361557043 99.883596457 29.3602020101
262 15 2 53.1211187552 100.335911205 28.428195964
263 15 2 53.1899811643 100.506991604 27.4086669174
264 15 2 53.3184939832 100.377682553 26.3887582764
265 15 2 53.476971288 99.9562086478 25.4556480461
266 15 2 53.6329959722 99.2774245276 24.6886027884
267 15 2 53.7543744788 98.3996379717 24.1517526868
268 15 2 53.8120711577 97.3992952989 23.8882462517
269 15 2 53.7828547869 96.3640134905 23.9163174487
270 15 2 53.6514160366 95.3845941368 24.2276237218
271 16 1 79.6695920693 95.9881761823 54.4878664141
272 16 1 80.0380741286 92.2255534264 50.4598542455
273 16 2 79.6970389185 95.783151249 55.0022524902
274 16 2 79.5824350292 95.25289522 55.8849441144
275 16 2 79.2731942959 94.5629168168 56.5932872397
276 16 2 78.8106718561 93.7622617719 57.0606998015
277 16 2 78.2501940652 92.910063698 57.2425599123
278 16 2 77.6560156471 92.070154217 57.120273027
279 16 2 77.0954630477 91.3052448785 56.7029667866
280 16 2 76.6327978094 90.6712111695 56.0266590576
281 16 2 76.3233593034 90.2119996132 55.150975
282 16 2 76.2085206936 89.955622161 54.1537123932
283 16 2 76.3119178836 89.9116029775 53.1237505765
284 16 2 76.6372951672 90.070110339 52.1529493349
285 16 2 77.1681639458 90.4028527684 51.3277761247
286 16 2 77.8693056204 90.8656577278 50.7214247968
287 16 2 78.6899816726 91.4024978274 50.3871441721
288 16 2 79.5685583449 91.9505975722 50.3533845543
289 17 1 37.9647485623 97.9014535027 89.9483189674
290 17 1 37.5756723391 92.3982966901 90.2344585298
291 17 2 37.6232892941 98.1776733343 90.2866823236
292 17 2 36.8216081029 98.5535371299 90.8247192053
293 17 2 35.8726151719 98.7081220864 91.2106802387
294 17 2 34.8631408818 98.6163079184 91.4251139751
295 17 2 33.8855283274 98.2754329625 91.46420322
296 17 2 33.0292164915 97.7055367801 91.340112961
297 17 2 32.3725881209 96.9475336056 91.0798815612
298 17 2 31.9758253478 96.0594831227 90.7229562849
299 17 2 31.87542425 95.1112984798 90.3175977847
300 17 2 32.0808683307 94.1783738932 89.9164812721
301 17 2 32.5737641224 93.334712666 89.5718953129
302 17 2 33.3095177027 92.6461819844 89.3309758639
303 17 2 34.2213993105 92.1645093003 89.2314099566
304 17 2 35.226625586 91.9225675118 89.2980006251
305 17 2 36.2339050525 91.9313786867 89.5404061756
306 17 2 37.15175909 92.1791094304 89.9522598578
307 18 1 18.7776249115 86.498836667 86.2848946073
308 18 1 16.1179534648 82.4388366719 83.6466112834
309 18 2 18.6847609809 87.0075007291 86.0848477368
310 18 2 18.5645896646 87.857707207 85.5050565582
311 18 2 18.507466104 88.508874437 84.7012107094
312 18 2 18.4999276352 88.900742416 83.7421316356
313 18 2 18.5239920458 88.9966855749 82.7107898758
314 18 2 18.5587966052 88.7870511008 81.6967425194
315 18 2 18.5824996472 88.2900387654 80.7879703172
316 18 2 18.5742713791 87.5500420643 80.0628584713
317 18 2 18.5161924616 86.6336018686 79.5830520329
318 18 2 18.3948873093 85.6233414025 79.3878371211
319 18 2 18.2027432386 84.6104353569 79.4905600981
320 18 2 17.9386043444 83.6862995602 79.8774110836
321 18 2 17.6078768571 82.93425867 80.508682689
322 18 2 17.2220363794 82.421951353 81.3223892393
323 18 2 16.7975819159 82.1951652017 82.2399166019
324 18 2 16.3545320326 82.2736633171 83.1731876547
325 19 1 11.5093756537 71.1515290491 45.5162814903
326 19 1 12.8998846114 71.9108147745 50.808536311
327 19 2 11.550597873 71.6028175102 45.1968741617
328 19 2 11.5016514745 72.5463006406 44.7715579925
329 19 2 11.3068252301 73.550747904 44.608529036
330 19 2 10.9997870123 74.5328498602 44.7295798171
331 19 2 10.6244325151 75.411333784 45.1306097514
332 19 2 10.2308842786 76.1143714568 45.7819989034
333 19 2 9.87092315371 76.5861261171 46.6313077638
334 19 2 9.59326861599 76.7918418314 47.6080569709
335 19 2 9.43913811542 76.7210114056 48.6301513163
336 19 2 9.4384902162 76.3883340867 49.611362503
337 19 2 9.60729395365 75.8323757664 50.4691886249
338 19 2 9.94607329928 75.1120538028 51.1323739948
339 19 2 10.4398594022 74.3012668607 51.5474039097
340 19 2 11.05955496 73.4821592461 51.6833823732
341 19 2 11.7645863599 72.7376336719 51.5348481827
342 19 2 12.5066018552 72.1437948975 51.1222727036
343 20 1 12.1743502314 58.6923744616 67.192590066
344 20 1 8.65681262564 54.6853112715 68.6377076542
345 20 2 11.968031409 59.2061334624 67.2220148973
346 20 2 11.4062385094 60.0738157983 67.1515442434
347 20 2 10.652091905 60.7512521028 66.9375513379
348 20 2 9.76352770888 61.1756569887 66.6153958268
349 20 2 8.81073383842 61.3073082066 66.2302960886
350 20 2 7.86975257413 61.1331672212 65.8332076996
351 20 2 7.01554950904 60.6680676394 65.47617897
352 20 2 6.31518063526 59.9533631665 65.2076068787
353 20 2 5.82168036954 59.0531583264 65.0678258187
354 20 2 5.5692276079 58.0484655057 65.0854312247
355 20 2 5.57003041062 57.0298208911 65.2746731755
356 20 2 5.8132132702 56.0890323383 65.6341575379
357 20 2 6.26580838478 55.3108113306 66.1469730376
358 20 2 6.87576058515 54.7650517545 66.782232677
359 20 2 7.57667202432 54.5004592581 67.4978890027
360 20 2 8.2938541638 54.5401118617 68.2445666179
361 21 1 75.9823136731 73.3971817327 83.1493195337
362 21 1 74.2104376131 70.3554243066 87.4068021291
363 21 2 75.9512140235 73.945524338 83.2250479101
364 21 2 75.6717627924 74.9219361087 83.4299309857
365 21 2 75.1320939665 75.7587928456 83.7160749556
366 21 2 74.3862841398 76.3814805541 84.0759050979
367 21 2 73.5071991072 76.7349061741 84.4951303926
368 21 2 72.5798523425 76.7885191651 84.9540461108
369 21 2 71.6936562474 76.5390961065 85.4293298472
370 21 2 70.9342724501 76.0110345037 85.8961672956
371 21 2 70.3758039767 75.2541290206 86.3305140062
372 21 2 70.0740409586 74.3390328292 86.7112869734
373 21 2 70.0613755111 73.3508177616 87.0222862947
374 21 2 70.3438492784 72.3812202403 87.2536717494
375 21 2 70.9006027544 71.520279748 87.4028597076
376 21 2 71.6857765705 70.8481319698 87.4747586217
377 21 2 72.6326914546 70.4277046392 87.4813216337
378 21 2 73.6599258686 70.2989818441 87.4404570787
379 22 1 50.363206245 64.7086081682 10.6333167465
380 22 1 50.1064115121 70.1586331547 11.4989235698
381 22 2 50.1069435025 64.532677273 10.174231444
382 22 2 49.4484610008 64.3305250695 9.40029004265
383 22 2 48.6135931629 64.3205432155 8.78681953239
384 22 2 47.6825233295 64.5177424007 8.3773424781
385 22 2 46.7442033964 64.9182493167 8.19678798632
386 22 2 45.8882460862 65.4996596988 8.24921948391
387 22 2 45.1967569889 66.2230804151 8.51746434748
388 22 2 44.7368508564 67.036674471 8.96467914216
389 22 2 44.5545342721 67.8803858132 9.53770780221
390 22 2 44.6705122743 68.6914132783 10.1719266643
391 22 2 45.0783011468 69.4099347508 10.7971347419
392 22 2 45.7448193928 69.9845597892 11.3439523571
393 22 2 46.6134030242 70.3770137274 11.7501449133
394 22 2 47.6089703335 70.5656263082 11.9662954122
395 22 2 48.6448653902 70.5473068693 11.960308681
396 22 2 49.6307564973 70.3378260488 11.7203367618
397 23 1 86.6729025595 16.8567796949 40.1039314988
398 23 1 82.9575805645 17.7839643949 44.0857278354
399 23 2 86.9831175358 17.2954614103 39.9671593923
400 23 2 87.3546768712 18.2236107103 39.695253989
401 23 2 87.4291531985 19.224594918 39.4384780094
402 23 2 87.2026462929 20.2154004028 39.2373583329
403 23 2 86.6986897468 21.1139412972 39.1273489159
404 23 2 85.9661059459 21.8465414049 39.1355992578
405 23 2 85.0745560391 22.3546495884 39.2784797974
406 23 2 84.1081905108 22.6001765493 39.5600897907
407 23 2 83.1579790895 22.5689665659 39.9718836747
408 23 2 82.3134190999 22.272087749 40.4934499729
409 23 2 81.6543780213 21.7448232139 41.0943717464
410 23 2 81.2438137799 21.043455118 41.736999017
411 23 2 81.1220363024 20.2401346932 42.3798804619
412 23 2 81.3030333737 19.4163058535 42.981541591
413 23 2 81.7731956881 18.6552818001 43.5042650356
414 23 2 82.4925573006 18.034651246 43.9175283862
415 24 1 90.3954417931 90.3103281054 97.547937232
416 24 1 87.6911385444 93.6711609754 100.998956997
417 24 2 90.8171832717 90.5454754719 97.2755011307
418 24 2 91.4452829589 91.1495104593 96.7150704676
419 24 2 91.8218909105 91.9280201842 96.1445101551
420 24 2 91.9201098256 92.8215376057 95.6293114815
421 24 2 91.7384168201 93.7601130389 95.2299196699
422 24 2 91.3008022333 94.6696898813 94.9962244573
423 24 2 90.6545829726 95.4788546746 94.9630127788
424 24 2 89.866089704 96.1253462504 95.146798031
425 24 2 89.0146209888 96.5617306693 95.5443149202
426 24 2 88.1852154322 96.7597246975 96.1328170855
427 24 2 87.4609006412 96.7127737484 96.8721503684
428 24 2 86.9151254807 96.4366493153 97.7084127571
429 24 2 86.6050654053 95.968011442 98.578867411
430 24 2 86.5664110695 95.3610672578 99.4176609559
431 24 2 86.8101152203 94.6826301428 100.161825843
432 24 2 87.3213943831 94.0060298664 100.757019672
433 25 1 16.6003021706 74.3114601974 83.9008382859
434 25 1 20.6610800719 70.5660817524 83.9154739078
435 25 2 16.6285709054 74.6882284232 84.3065822577
436 25 2 16.7055229959 75.2030402026 85.2024043487
437 25 2 16.8235133448 75.4339513232 86.2055037172
438 25 2 16.9907099806 75.3630610386 87.2255379636
439 25 2 17.2107959105 74.9999769937 88.1706211192
440 25 2 17.4826334239 74.3809395138 88.955698807
441 25 2 17.8003677914 73.5655183956 89.510300721
442 25 2 18.1539609083 72.6311832797 89.7849638055
443 25 2 18.5301062407 71.6662424996 89.7557406813
444 25 2 18.9134416804 70.7617940133 89.4263823847
445 25 2 19.2879497603 70.0034220681 88.8279964708
446 25 2 19.6384176034 69.4633964247 88.016211643
447 25 2 19.9518235361 69.1940851623 87.0661073453
448 25 2 20.218523979 69.2231814675 86.0653704718
449 25 2 20.433132433 69.551179475 85.1063029404
450 25 2 20.5950104447 70.151329228 84.27740862
451 26 1 94.9673809038 8.89685943686 91.5316860014
452 26 1 91.7681862612 5.58911563655 94.5881505688
453 26 2 94.7867144233 9.41897203522 91.4854296991
454 26 2 94.2465474952 10.2909460382 91.339378204
455 26 2 93.4814677115 10.9613257233 91.1426702645
456 26 2 92.5542822742 11.3723109651 90.930848861
457 26 2 91.5425738824 11.4897447482 90.7408345256
458 26 2 90.5316292765 11.3062264881 90.6075601349
459 26 2 89.60666558 10.8417865747 90.5607868706
460 26 2 88.8450629863 10.1420606558 90.6223915684
461 26 2 88.3093117609 9.2741300695 90.8043727021
462 26 2 88.0413164206 8.32040756009 91.1077567554
463 26 2 88.0585762491 7.37112557615 91.5225046602
464 26 2 88.3525902837 6.51611182429 92.0284268308
465 26 2 88.8896321557 5.8366017137 92.5970233912
466 26 2 89.6138241584 5.39783396578 93.1940818621
467 26 2 90.4522303511 5.24310427898 93.7827955372
468 26 2 91.3215044748 5.38981904169 94.327118316
469 27 1 44.7630321481 65.1628901239 18.8798345292
470 27 1 46.2848864757 66.7141112898 23.9587776635
471 27 2 44.5592602582 64.648527643 18.8439201435
472 27 2 44.3738053788 63.6304619301 18.8948976217
473 27 2 44.4477679739 62.6193466213 19.1084986003
474 27 2 44.7642508179 61.7060281031 19.4815105369
475 27 2 45.284251613 60.9724388459 19.9961910067
476 27 2 45.950217944 60.4841294784 20.6218848765
477 27 2 46.6912930273 60.284294023 21.3178184386
478 27 2 47.4297741172 60.3898328759 22.036815825
479 27 2 48.0881949036 60.7898123814 22.7295989616
480 27 2 48.5963863591 61.4464614052 23.3492791333
481 27 2 48.8978724583 62.2986140725 23.8556307649
482 27 2 48.9550178164 63.2672848739 24.2187578746
483 27 2 48.7524580544 64.2628679834 24.4218190129
484 27 2 48.2985002205 65.1933045903 24.462562316
485 27 2 47.6243656254 65.9724738133 24.3535307567
486 27 2 46.7813441032 66.5280423888 24.1209188865
487 28 1 68.7698269688 40.4506018962 75.8757299352
488 28 1 64.421343803 37.7356111984 77.9342514263
489 28 2 68.704235995 40.9995709564 75.8343489847
490 28 2 68.3813064095 41.9663941461 75.6488242859
491 28 2 67.8163881858 42.7824330274 75.3515063484
492 28 2 67.0511080093 43.3772730331 74.9854986569
493 28 2 66.145355022 43.7006612824 74.6001655834
494 28 2 65.1718220873 43.7270869966 74.2466329572
495 28 2 64.2093800293 43.4581067383 73.9731280816
496 28 2 63.3358887688 42.9222025351 73.8205839443
497 28 2 62.6211005986 42.1721858186 73.8189082851
498 28 2 62.1203024494 41.2803838036 73.9842575853
499 28 2 61.8692766334 40.3320470561 74.3175644474
500 28 2 61.881039382 39.4175791319 74.8044525912
501 28 2 62.1446544515 38.624296534 75.416547213
502 28 2 62.6262299322 38.0284700466 76.1140612735
503 28 2 63.2720074055 37.6883728576 76.8494219797
504 28 2 64.01326188 37.6389691125 77.571606918
505 29 1 79.1521057458 91.5425728828 80.7198160926
506 29 1 74.6886783037 94.1175950459 78.7285683959
507 29 2 79.3803102099 91.7813519086 81.1651124966
508 29 2 79.7966244355 92.421860563 81.8650275917
509 29 2 80.1532813725 93.2676099387 82.3456041558
510 29 2 80.4022394179 94.247347836 82.5727242902
511 29 2 80.5052734347 95.2776093595 82.5353719721
512 29 2 80.4374588714 96.2703245204 82.2466371362
513 29 2 80.1894435676 97.1408455805 81.7425225617
514 29 2 79.768300179 97.8156624671 81.0786623152
515 29 2 79.1968815233 98.2391030201 80.3252508544
516 29 2 78.5117376073 98.3784073601 79.5606449909
517 29 2 77.7597841914 98.2267138644 78.8642218762
518 29 2 76.994026543 97.8036845848 78.3091439864
519 29 2 76.2687281487 97.1537131051 77.9556905581
520 29 2 75.6344647422 96.3418781836 77.8457632972
521 29 2 75.1335144613 95.4480119991 77.9990671503
522 29 2 74.7960043087 94.5594236605 78.4113142517
523 30 1 85.7615622954 69.5159172344 16.8848691577
524 30 1 86.1683275548 67.0375330369 21.8052497177
525 30 2 85.3063774727 69.8248231181 16.81583641
526 30 2 84.3455070185 70.2087242216 16.7629410032
527 30 2 83.317236306 70.3179638737 16.8275633788
528 30 2 82.3132858937 70.1505153002 17.0211984897
529 30 2 81.4231596098 69.7295711195 17.3435821223
530 30 2 80.7259865174 69.1014293969 17.7827149799
531 30 2 80.2833085117 68.3312736998 18.3159563855
532 30 2 80.1334709413 67.4972317899 18.9120879198
533 30 2 80.2881275315 66.6832544864 19.5341588962
534 30 2 80.731178179 65.9714637733 20.1428543173
535 30 2 81.4202364327 65.4346675999 20.7000783319
536 30 2 82.2904929059 65.1297236312 21.1724265699
537 30 2 83.2606224785 65.092356823 21.5342308613
538 30 2 84.2401968641 65.3339031884 21.7698988214
539 30 2 85.1379269072 65.8402765502 21.8753350551
540 30 2 85.8699833451 66.5732524582 21.858314441
541 31 1 29.6859009646 9.01947905992 54.9760653279
542 31 1 29.4216362407 3.61489234513 56.0889883529
543 31 2 30.1990527255 9.22121166019 54.9180927805
544 31 2 31.1952705263 9.48891569204 55.0147088033
545 31 2 32.1672458426 9.58142166385 55.3613449826
546 31 2 33.0352057897 9.47592914402 55.9171928663
547 31 2 33.7288582055 9.16768473428 56.6223749145
548 31 2 34.1937985938 8.67041532919 57.4034021773
549 31 2 34.3964689484 8.01507694645 58.1798726163
550 31 2 34.3272164754 7.24703316856 58.8717995354
551 31 2 34.0011734201 6.42192037358 59.4069021544
552 31 2 33.456877803 5.60057662792 59.7271938088
553 31 2 32.7527607823 4.84349645924 59.7942672795
554 31 2 31.9618208098 4.2053169419 59.5927955079
555 31 2 31.1649700175 3.7298376737 59.1319286166
556 31 2 30.4436592927 3.44602855959 58.4444599001
557 31 2 29.8724542474 3.36538928226 57.5838368035
558 31 2 29.5122387624 3.48090113679 56.6192893308
559 32 1 64.9731730973 39.0049016826 36.6954322499
560 32 1 69.7027062027 37.3976275736 34.336157445
561 32 2 64.7125985189 39.4204300987 36.4369392858
562 32 2 64.4368223394 40.3000944501 35.9640882109
563 32 2 64.4593755442 41.239117389 35.5268499643
564 32 2 64.7812727284 42.1475535173 35.1466184365
565 32 2 65.3762440834 42.9382453432 34.8395915086
566 32 2 66.1931298198 43.5347674529 34.6152946575
567 32 2 67.1605432456 43.8783924836 34.4757127351
568 32 2 68.1933774721 43.9334439651 34.4151090538
569 32 2 69.2005626794 43.6905481352 34.4205482704
570 32 2 70.0933668874 43.1674883325 34.4730754082
571 32 2 70.7934836381 42.4075840931 34.5494435522
572 32 2 71.2401694205 41.4757426903 34.6242327434
573 32 2 71.3957802786 40.4525430105 34.6721669404
574 32 2 71.2492029583 39.4268910027 34.6704178623
575 32 2 70.8168678498 38.4879161392 34.6006857264
576 32 2 70.1412514022 37.7168475021 34.4508672236
577 33 1 83.7862020108 2.35771263676 37.2837371873
578 33 1 80.2215583723 6.56435955561 36.9439894993
579 33 2 84.2185168547 2.44443959261 37.6198382122
580 33 2 85.0470730521 2.80643950156 38.1257045037
581 33 2 85.8290167384 3.40661300724 38.4447747871
582 33 2 86.4849116502 4.19997172445 38.5623920551
583 33 2 86.9468105331 5.12391895227 38.4822612037
584 33 2 87.1644483523 6.10395519609 38.2261113421
585 33 2 87.109823816 7.06046859739 37.8317152412
586 33 2 86.7797516185 7.91599134188 37.3494464477
587 33 2 86.1961527721 8.60226064372 36.8376878688
588 33 2 85.4040565656 9.06644071598 36.3575103273
589 33 2 84.467496265 9.27593861142 35.9671061185
590 33 2 83.4636726521 9.22137498253 35.7164849387
591 33 2 82.4759173801 8.91743898393 35.6429156343
592 33 2 81.5860975157 8.40154939525 35.7675292469
593 33 2 80.8671535751 7.73044399936 36.0933929746
594 33 2 80.3764511906 6.97500808509 36.6052306056