LAMMPS input file for bananas

4320 atoms

2 atom types

0 100.793683992 xlo xhi
0 100.793683992 ylo yhi
0 100.793683992 zlo zhi

Masses

 1 1
 2 1

Atoms

1 1 1 80.7593840377 28.5434756033 85.5400257918
2 1 1 77.7407163294 29.9227733357 89.9562656056
3 1 2 81.2894893439 28.7046507652 85.5598378979
4 1 2 82.186631748 29.214850808 85.6508402846
5 1 2 82.8942123759 29.9525040864 85.8200954384
6 1 2 83.3519838308 30.8475422565 86.0706986711
7 1 2 83.5224681545 31.8155517621 86.3983306349
8 1 2 83.3943728428 32.7654679047 86.7916510187
9 1 2 82.9836201274 33.6078751476 87.2333321877
10 1 2 82.3318957066 34.2631571029 87.7016385506
11 1 2 81.5028492058 34.6687533525 88.172407701
12 1 2 80.5762926841 34.7848616632 88.621252756
13 1 2 79.6409259781 34.5980658534 89.0257851553
14 1 2 78.7862519495 34.1225586428 89.3676553188
15 1 2 78.094418538 33.3988480234 89.6342251616
16 1 2 77.632731196 32.4900650645 89.819720022
17 1 2 77.4475181773 31.4762096848 89.9257550059
18 1 2 77.5599078397 30.4468588729 89.961187775
19 2 1 45.4676701026 65.2936057693 49.1833533349
20 2 1 43.5714559149 60.2164404621 50.2532856966
21 2 2 45.4095336389 65.6568831902 49.5981198417
22 2 2 45.078345824 66.2595302989 50.3730915217
23 2 2 44.4885223904 66.7057923841 51.0986316513
24 2 2 43.6975243635 66.9440269326 51.723944719
25 2 2 42.7811492952 66.9415525852 52.2073706417
26 2 2 41.8266225193 66.6876279552 52.5201819708
27 2 2 40.9246467961 66.1944306772 52.6492023216
28 2 2 40.1611349978 65.4959474479 52.5980073659
29 2 2 39.60937938 64.64487623 52.3865989189
30 2 2 39.3233711882 63.7078229735 52.0495818277
31 2 2 39.3328795006 62.7592306612 51.6330098311
32 2 2 39.6407378556 61.8745940303 51.1901878852
33 2 2 40.2225859829 61.1235784284 50.7768135589
34 2 2 41.0290901765 60.5636700035 50.445900349
35 2 2 41.9904399307 60.2349359952 50.242945642
36 2 2 43.0227109806 60.1563727127 50.2017837491
37 3 1 7.17326037908 50.3020852875 71.5811550156
38 3 1 12.527286854 50.7674413836 72.860152776
39 3 2 7.03444537838 49.8304221235 71.3249405676
40 3 2 6.95503312456 49.0040574844 70.7050492962
41 3 2 7.12456446227 48.3045735813 69.9597765904
42 3 2 7.53868101372 47.7829414288 69.1661410377
43 3 2 8.17073111259 47.4739213301 68.4055693696
44 3 2 8.97419903217 47.3928945679 67.756474633
45 3 2 9.88694476961 47.5344614416 67.2871090502
46 3 2 10.836867941 47.8729334355 67.0493430119
47 3 2 11.7484795386 48.3646746588 67.073937229
48 3 2 12.5497825525 48.9520791398 67.3677389766
49 3 2 13.178834305 49.5688214567 67.9130579827
50 3 2 13.5893923608 50.1459021222 68.6692788495
51 3 2 13.7551294009 50.6179367028 69.5765630384
52 3 2 13.6720328876 50.9291154346 70.5613029927
53 3 2 13.3587707964 51.0382901345 71.5428312696
54 3 2 12.8549900803 50.9227247471 72.4407731622
55 4 1 42.7832853967 62.7431728596 15.4285892919
56 4 1 38.4211371601 59.6970423654 16.9154459881
57 4 2 42.683272018 63.2863348294 15.3800713902
58 4 2 42.31616427 64.2290679534 15.1566073677
59 4 2 41.7348591791 65.0050385496 14.7913621949
60 4 2 40.9802711155 65.5465829233 14.3322581143
61 4 2 40.1091087293 65.8074047035 13.8357723571
62 4 2 39.1887061085 65.7667946331 13.3617893944
63 4 2 38.2908854569 65.4315181628 12.9681426275
64 4 2 37.4854106919 64.8351987978 12.7053430285
65 4 2 36.8336286507 64.0352534057 12.6119751997
66 4 2 36.3828774889 63.1076588221 12.7111804904
67 4 2 36.1621719352 62.1400267651 13.0085477248
68 4 2 36.1795586757 61.2236182617 13.4916037955
69 4 2 36.4213829205 60.4450254489 14.130950554
70 4 2 36.8535330008 59.8782789317 14.8829443735
71 4 2 37.4245495568 59.5781000916 15.6936741484
72 4 2 38.0703159205 59.5749133787 16.5038751479
73 5 1 26.0175281292 57.4088559152 98.4099007832
74 5 1 26.420429303 51.924115121 98.9326627987
75 5 2 25.6481478052 57.6490675318 98.7464095402
76 5 2 24.8137547022 57.9319240156 99.2915979208
77 5 2 23.861517585 57.9683815966 99.698249281
78 5 2 22.8804854197 57.7449580092 99.945449205
79 5 2 21.9623317639 57.2718584618 100.026816849
80 5 2 21.1929989669 56.5820454589 99.9510865397
81 5 2 20.6448647549 55.7282343576 99.7413116602
82 5 2 20.370145194 54.7780885032 99.4327633992
83 5 2 20.3961353357 53.8080518962 99.0697158749
84 5 2 20.7227213458 52.8963815262 98.7014106678
85 5 2 21.3223908803 52.1160144561 98.3775685819
86 5 2 22.1427407615 51.5279198042 98.1438577267
87 5 2 23.1112533883 51.1755415715 98.0377309909
88 5 2 24.1419065211 51.0808388375 98.0850123115
89 5 2 25.1430139793 51.242284249 98.2975428916
90 5 2 26.0255825916 51.6350032334 98.6721019057
91 6 1 56.3605753509 85.2870639474 13.3856705036
92 6 1 56.8006108155 83.0325790763 18.4097781674
93 6 2 56.8396890911 85.4527390878 13.1612081239
94 6 2 57.7637341325 85.8703973136 12.9487172322
95 6 2 58.6608942316 86.3827912855 13.0262168149
96 6 2 59.4613706579 86.9292987188 13.3923003128
97 6 2 60.1041771394 87.4461879776 14.0192575144
98 6 2 60.5426985982 87.8724270437 14.855600267
99 6 2 60.7489399901 88.1552464216 15.8307554849
100 6 2 60.7160779781 88.2549489369 16.861497697
101 6 2 60.4590828615 88.1485280282 17.8595348263
102 6 2 60.0133540732 87.8317647328 18.7395557767
103 6 2 59.4314936155 87.3196122346 19.4270063113
104 6 2 58.7785115288 86.6448329211 19.8648844721
105 6 2 58.1259003996 85.8550121794 20.0189361557
106 6 2 57.545119003 85.0082211151 19.8807772836
107 6 2 57.1010790256 84.1677235266 19.4686579884
108 6 2 56.8462285393 83.3962095789 18.8257991632
109 7 1 75.3250423559 31.9638479699 39.5925621042
110 7 1 72.2093884691 28.0851749719 41.9939341482
111 7 2 75.4404219028 32.4018269631 39.9123175572
112 7 2 75.4236548237 33.2210420487 40.546396038
113 7 2 75.1093604482 33.9684874808 41.1913723033
114 7 2 74.528808845 34.5677647768 41.8056007377
115 7 2 73.7375387173 34.955980584 42.3502383082
116 7 2 72.8102951986 35.0894792402 42.792785003
117 7 2 71.8342170337 34.9478218706 43.1100461208
118 7 2 70.9008941149 34.5356493368 43.2902464059
119 7 2 70.0980193079 33.8822592347 43.334103331
120 7 2 69.5013954817 33.0389354967 43.2547617018
121 7 2 69.1680262799 32.0742739984 43.0765955428
122 7 2 69.1309203905 31.0679302281 42.8329864704
123 7 2 69.3960828924 30.1033589018 42.5632810475
124 7 2 69.9419679086 29.2602072886 42.3092044497
125 7 2 70.7214424553 28.6070555757 42.111057327
126 7 2 71.666082487 28.1951659669 42.004042507
127 8 1 89.8009635327 88.444134842 44.6431504392
128 8 1 94.2459399447 90.3988120071 42.0088738897
129 8 2 89.3242304734 88.6971674654 44.516336916
130 8 2 88.5561282842 89.365512917 44.3245469382
131 8 2 88.0105587149 90.2360982612 44.190812071
132 8 2 87.7393641451 91.2326544755 44.1084760028
133 8 2 87.7693784063 92.2674306293 44.0661975587
134 8 2 88.0999809505 93.2491921465 44.0489844187
135 8 2 88.7031534108 94.0915365937 44.0395596272
136 8 2 89.5260334011 94.7207690305 44.0199363414
137 8 2 90.495732781 95.0826191067 43.973057284
138 8 2 91.5259812154 95.1471876599 43.8843494686
139 8 2 92.5249894846 94.9116719437 43.7430524881
140 8 2 93.4038158264 94.4006210907 43.5431992973
141 8 2 94.0844727401 93.6636985252 43.284160093
142 8 2 94.5070353388 92.7711552739 42.9706997192
143 8 2 94.6351033424 91.8074267734 42.6125433637
144 8 2 94.4591188663 90.8634368054 42.2234901339
145 9 1 35.4005891767 45.1397083216 80.1808042102
146 9 1 38.4602506198 49.6835894506 80.8946719853
147 9 2 35.3168915382 44.8399905858 80.6396566617
148 9 2 35.3940798431 44.297210881 81.5187938346
149 9 2 35.765875885 43.8320053751 82.3666154855
150 9 2 36.3961896724 43.5004950053 83.1191149309
151 9 2 37.2253680121 43.3466147544 83.7209738517
152 9 2 38.1756317386 43.3981090947 84.1306044099
153 9 2 39.1581650769 43.6640031534 84.3239398691
154 9 2 40.0812109633 44.1337800964 84.2966282129
155 9 2 40.8584344563 44.7783397097 84.0644288199
156 9 2 41.4167919356 45.552650806 83.6617760381
157 9 2 41.7031888333 46.3998556971 83.1386405866
158 9 2 41.6893190617 47.2564526202 82.5559748574
159 9 2 41.3742450371 48.058083754 81.9801572687
160 9 2 40.7844831388 48.745401262 81.4769420485
161 9 2 39.9715868114 49.2694766889 81.1054659134
162 9 2 39.0074476064 49.5962606591 80.9128579142
163 10 1 34.5766624579 64.3057646624 58.8465875153
164 10 1 33.0998435052 64.8852074624 53.554967453
165 10 2 34.6005388887 64.7783359377 59.1355302326
166 10 2 34.7759789045 65.7344170514 59.4941103715
167 10 2 35.0941376104 66.7164200105 59.5829655201
168 10 2 35.5109600923 67.6444769131 59.3869568077
169 10 2 35.9733984967 68.4436368962 58.9169099433
170 10 2 36.4242472005 69.0506977066 58.208628481
171 10 2 36.807356951 69.4199664173 57.3196304216
172 10 2 37.0727527199 69.5274242154 56.3239056009
173 10 2 37.1811887938 69.3729156531 55.3051717135
174 10 2 37.1077259161 68.9801628161 54.3492436693
175 10 2 36.8440044331 68.3946031191 53.536211793
176 10 2 36.3990062548 67.6792478065 52.9331418059
177 10 2 35.7982361774 66.9089386465 52.5879619642
178 10 2 35.0813971892 66.1635263032 52.5250945264
179 10 2 34.2987716496 65.5205921628 52.7432297302
180 10 2 33.5066381865 65.048376997 53.2154451735
181 11 1 60.4293630971 59.9773843823 51.265294998
182 11 1 65.4934022933 61.7865930532 52.5303096485
183 11 2 60.2108801696 59.6210201425 51.6295082968
184 11 2 60.0084028532 58.8440943657 52.2843665141
185 11 2 60.0939588355 57.9918979892 52.8673686762
186 11 2 60.465822517 57.149393968 53.3420837358
187 11 2 61.0961721168 56.4006618246 53.6819507255
188 11 2 61.9336255533 55.8212340256 53.8726997191
189 11 2 62.9079237839 55.4712113991 53.9136524972
190 11 2 63.9363347285 55.3897851047 53.8177843651
191 11 2 64.931194078 55.5916644645 53.6105414882
192 11 2 65.8078956613 56.0657362473 53.3275215425
193 11 2 66.4926030722 56.77607761 53.011229081
194 11 2 66.9289796598 57.6652303688 52.7072013579
195 11 2 67.0833234642 58.6594381591 52.4598577289
196 11 2 66.9476390599 59.6753691311 52.3084509463
197 11 2 66.5403663174 60.6277114248 52.2834893751
198 11 2 65.9046996582 61.4369491184 52.4039562375
199 12 1 23.6673710153 3.25166538902 93.2566689425
200 12 1 18.4529381687 2.27456467866 91.7162289563
201 12 2 23.7362951956 3.35165200375 93.797625246
202 12 2 23.6909849726 3.69304333683 94.7747889746
203 12 2 23.4131846884 4.19689430016 95.6364218547
204 12 2 22.9157175057 4.80498531457 96.3118489282
205 12 2 22.2314286379 5.44959559884 96.7473673985
206 12 2 21.4101915956 6.05967573792 96.9111414971
207 12 2 20.5143623494 6.56732364719 96.7961042286
208 12 2 19.6130957502 6.91397366601 96.4206015087
209 12 2 18.7760422488 7.05573466114 95.8267199824
210 12 2 18.0669994438 6.96739058622 95.0764509398
211 12 2 17.5380971012 6.64469885704 94.2460399746
212 12 2 17.2250456651 6.10477705168 93.4190374029
213 12 2 17.1438813464 5.38454268908 92.6786828747
214 12 2 17.2895044651 4.53734829584 92.1003183023
215 12 2 17.6361442725 3.62811846602 91.7445206469
216 12 2 18.1397078859 2.7274321579 91.6515804895
217 13 1 84.0024522351 81.4635038114 24.5631186317
218 13 1 81.8591703555 78.8054882784 20.2203905407
219 13 2 83.6335711131 81.732527989 24.877656861
220 13 2 82.8736947641 82.3243509999 25.259472876
221 13 2 82.0708737777 82.9738521881 25.3435958897
222 13 2 81.2833941585 83.6096896095 25.1221537208
223 13 2 80.5681435865 84.1617667353 24.6151256372
224 13 2 79.975426257 84.5676215642 23.8685213
225 13 2 79.5443777878 84.7781198661 22.9501871052
226 13 2 79.2993981122 84.7619336365 21.9436221666
227 13 2 79.2479274902 84.5083965597 20.9403675942
228 13 2 79.379768349 84.0284762158 20.0316627672
229 13 2 79.6680147639 83.3537744143 19.3001291081
230 13 2 80.0715048622 82.533646774 18.8122393609
231 13 2 80.5385726172 81.6307040903 18.6122587785
232 13 2 81.0117570688 80.7151055284 18.7182104627
233 13 2 81.4330397364 79.858163803 19.1202326069
234 13 2 81.7491328482 79.1258452149 19.7814773735
235 14 1 87.9505751452 95.4098818259 8.44572712873
236 14 1 89.3219830669 91.9322197591 12.513047859
237 14 2 87.504514917 95.7232447106 8.54679919866
238 14 2 86.5721279826 96.1028571404 8.79174617026
239 14 2 85.5883963327 96.1884756565 9.10542039915
240 14 2 84.6451668924 95.976279384 9.47789989673
241 14 2 83.8305949188 95.4895924697 9.89390273136
242 14 2 83.2211088846 94.776758149 10.3341799355
243 14 2 82.8744442273 93.9067323889 10.7772699978
244 14 2 82.8243809184 92.9627987359 11.2014550223
245 14 2 83.0776645093 92.0349772434 11.5867402568
246 14 2 83.6133912921 91.2118193846 11.9166765609
247 14 2 84.384913617 90.572336822 12.1798597013
248 14 2 85.3240917008 90.1787997058 12.3709698173
249 14 2 86.3475043857 90.0710609164 12.4912563114
250 14 2 87.3640527556 90.2629235802 12.5484239704
251 14 2 88.2832635579 90.7408829521 12.5559306938
252 14 2 89.0235355994 91.4653573368 12.5317608429
253 15 1 52.5858634635 80.9115531255 82.7039897792
254 15 1 49.7268147405 76.9209168875 85.2374960209
255 15 2 52.3135832698 81.1716291377 82.2970431585
256 15 2 51.7613621423 81.4387664378 81.4620943574
257 15 2 51.1822506618 81.4017278449 80.6037773723
258 15 2 50.6112609486 81.0649051256 79.807554279
259 15 2 50.0826648452 80.4600145682 79.1532274613
260 15 2 49.6268701302 79.6432061282 78.7076658367
261 15 2 49.2676489302 78.6899455095 78.5187099333
262 15 2 49.0199709539 77.6881356674 78.6108113534
263 15 2 48.8886390434 76.7301046893 78.9828040756
264 15 2 48.8678514077 75.904190336 79.6080107346
265 15 2 48.9417304408 75.2866882911 80.4366741911
266 15 2 49.0857699228 74.9348980134 81.4004927629
267 15 2 49.2690686963 74.8819000442 82.41884574
268 15 2 49.4571472246 75.1335408045 83.4061417473
269 15 2 49.615090309 75.6678997095 84.2796201695
270 15 2 49.710729516 76.4372871709 84.9668945597
271 16 1 45.1040699096 84.4280202884 61.9827461655
272 16 1 42.8329593115 81.7958844131 57.6895063112
273 16 2 45.6019592684 84.2384207534 62.1361729909
274 16 2 46.424096758 83.675300492 62.4197845749
275 16 2 47.046730827 82.883486862 62.6622881886
276 16 2 47.4211693395 81.9311733511 62.8245989661
277 16 2 47.5213425213 80.9011825824 62.8749414045
278 16 2 47.3461791501 79.8834172532 62.7917456156
279 16 2 46.9197041943 78.9666657449 62.5656133638
280 16 2 46.2888490018 78.230509299 62.2001746899
281 16 2 45.5191736325 77.7380683998 61.7117570429
282 16 2 44.6888912348 77.5302495108 61.1278970763
283 16 2 43.8817391253 77.6220165602 60.4848307563
284 16 2 43.179346357 78.0010270183 59.8241905495
285 16 2 42.6537934487 78.6287568869 59.1892107358
286 16 2 42.3610424388 79.4440120579 58.6207867184
287 16 2 42.3358360948 80.3685059933 58.1537475178
288 16 2 42.588531203 81.3139953336 57.8136811995
289 17 1 5.02710275582 81.9319019233 43.2787666254
290 17 1 6.4258862127 80.8673390811 48.5159511607
291 17 2 5.01384507026 82.4698445409 43.1452617117
292 17 2 4.85628274028 83.492331606 43.0891874296
293 17 2 4.552023992 84.4607908697 43.2964632842
294 17 2 4.14386227083 85.2937684312 43.7579851174
295 17 2 3.68406150042 85.922159185 44.4414749295
296 17 2 3.22959236576 86.2955055662 45.2944229329
297 17 2 2.83693958748 86.3865966227 46.2488736788
298 17 2 2.55695349054 86.1939482208 47.2276200146
299 17 2 2.43021513304 85.7419383203 48.1512403099
300 17 2 2.48333745123 85.0785849882 48.9453375251
301 17 2 2.72653956148 84.2711696806 49.5473203037
302 17 2 3.15271531517 83.4001047172 49.9121080061
303 17 2 3.7380810051 82.5516039143 50.0162396903
304 17 2 4.44434318689 81.8098244248 49.8600125136
305 17 2 5.22218902403 81.2491960394 49.4674546474
306 17 2 6.01578102117 80.9276371097 48.8841351741
307 18 1 34.5203269127 76.4758071075 71.5036354455
308 18 1 30.4273772358 76.4626365976 75.213834974
309 18 2 34.5400685531 76.924960302 71.1792078518
310 18 2 34.3489849473 77.7170708731 70.5392876146
311 18 2 33.8738526773 78.3961415226 69.9175461972
312 18 2 33.1532227039 78.9142126652 69.3829952232
313 18 2 32.2480224476 79.2379993905 68.9966991403
314 18 2 31.2360024166 79.3519252931 68.8062093592
315 18 2 30.2046494561 79.2595422209 68.8412300696
316 18 2 29.2432125564 78.9832065335 69.1109107825
317 18 2 28.4345680454 78.5620413797 69.603012377
318 18 2 27.8476656335 78.0483707268 70.2850226631
319 18 2 27.531243831 77.5029501714 71.1071197813
320 18 2 27.5093875639 76.9894292287 72.0067133319
321 18 2 27.779332897 76.5685498496 72.9141493222
322 18 2 28.3117189589 76.2926099539 73.7590589424
323 18 2 29.0532641073 76.200696615 74.476772494
324 18 2 29.9316224084 76.3151233775 75.0142138602
325 19 1 37.3046087083 76.3295534581 59.6306019855
326 19 1 38.4372109594 76.2394577126 54.2243938912
327 19 2 36.7840910513 76.1915874929 59.7625426889
328 19 2 35.7560194636 76.0931941592 59.8452323113
329 19 2 34.7357120452 76.1973817321 59.6983727431
330 19 2 33.8125662749 76.4805640926 59.3227936585
331 19 2 33.0671236071 76.9028402249 58.7401719045
332 19 2 32.5637283332 77.4116310879 57.9910557138
333 19 2 32.3446627717 77.9464720541 57.1311688423
334 19 2 32.4262933478 78.4445240984 56.226331497
335 19 2 32.7975788372 78.8463014079 55.3464610008
336 19 2 33.4210767448 79.1010933544 54.5591990149
337 19 2 34.2363560874 79.1715866326 53.9237461823
338 19 2 35.1655055166 79.0372662682 53.4854661474
339 19 2 36.1202347302 78.6962855031 53.2717507811
340 19 2 37.0099218967 78.1656341224 53.289523485
341 19 2 37.7498735936 77.4795898807 53.5246081418
342 19 2 38.2690443862 76.6865941767 53.9430212306
343 20 1 20.8410050643 64.9711617394 93.0899087961
344 20 1 22.0427228219 64.2103242626 98.4279788431
345 20 2 20.4301319341 65.3302570603 92.9918506022
346 20 2 19.5471383977 65.8717216996 92.9675921949
347 20 2 18.5885519804 66.2131245156 93.1625440068
348 20 2 17.6450144138 66.3367571486 93.5723022815
349 20 2 16.8057957672 66.2447604092 94.1728842279
350 20 2 16.1506577191 65.958929149 94.9229139872
351 20 2 15.7425834934 65.5187257179 95.7673939317
352 20 2 15.622037107 64.9776830768 96.6427175521
353 20 2 15.8032751826 64.3985254108 97.4824670201
354 20 2 16.2730474959 63.8474509879 98.2234669966
355 20 2 16.9918046981 63.3880983634 98.8115428946
356 20 2 17.8973031332 63.0757458959 99.2064587481
357 20 2 18.9102781808 62.9522732726 99.385584613
358 20 2 19.9416690146 63.0423442877 99.3459592258
359 20 2 20.9007362587 63.3511588034 99.104559915
360 20 2 21.7033326391 63.8639787967 98.6967551628
361 21 1 25.5705779266 85.746303816 86.233538858
362 21 1 20.7111080713 83.4719914753 84.9178462022
363 21 2 25.5739342193 86.0314688717 86.7089872931
364 21 2 25.390132774 86.6680474169 87.5055014459
365 21 2 24.9652565037 87.3787330048 88.1282824356
366 21 2 24.3266950998 88.0879289013 88.5316811529
367 21 2 23.5213150828 88.7201741538 88.6900445958
368 21 2 22.6111880436 89.2070216551 88.600054073
369 21 2 21.6679329844 89.4932769146 88.2810276933
370 21 2 20.7661884379 89.5420288881 87.7731595717
371 21 2 19.9768093643 89.3380143215 87.133856243
372 21 2 19.3604089115 88.8890089549 86.4325042103
373 21 2 18.9618336883 88.2251187854 85.7441455499
374 21 2 18.8060761162 87.3960359851 85.142638027
375 21 2 18.8959964366 86.4665095931 84.6939231577
376 21 2 19.2120620077 85.5104438136 84.4500158163
377 21 2 19.7141276526 84.6041618448 84.4442632181
378 21 2 20.3450947847 83.8194492236 84.6883054102
379 22 1 10.7721754122 97.9190237288 81.4239953145
380 22 1 15.1135166365 94.5051494245 81.5513125194
381 22 2 10.4438383145 97.8961135853 81.8701471537
382 22 2 9.8356926183 97.621739507 82.6628183899
383 22 2 9.29419668906 97.0674663147 83.3505780848
384 22 2 8.88150697463 96.2815591726 83.8848880835
385 22 2 8.64803958063 95.3333960603 84.2311967604
386 22 2 8.62787497722 94.3071441557 84.3720883081
387 22 2 8.8356516553 93.2940882211 84.3088701412
388 22 2 9.26523186717 92.3843102416 84.0614537296
389 22 2 9.89026106589 91.6584786926 83.6665397207
390 22 2 10.6665700517 91.1804958241 83.1742727737
391 22 2 11.5362008767 90.9916731413 82.6436710079
392 22 2 12.4326895567 91.1069659713 82.1372466589
393 22 2 13.2871240857 91.513610325 81.7153082553
394 22 2 14.0344255813 92.1722863008 81.4304636578
395 22 2 14.6192800508 93.0207019881 81.3228249927
396 22 2 15.0011801137 93.9792712089 81.4163525397
397 23 1 5.58371261944 77.959836294 51.378453177
398 23 1 4.02809819792 83.0884193507 52.7184870061
399 23 2 5.27226069909 77.5566277688 51.5970902611
400 23 2 4.72775202254 76.9197612042 52.2064844612
401 23 2 4.26071920424 76.4915646032 53.0262271213
402 23 2 3.89613505385 76.3187040361 53.9805057142
403 23 2 3.64963445874 76.4245723761 54.981245122
404 23 2 3.52608930585 76.8071571013 55.9361354478
405 23 2 3.51916442217 77.4392237311 56.757045816
406 23 2 3.61189500887 78.2707981761 57.3680572659
407 23 2 3.77823293735 79.2337217427 57.7123825623
408 23 2 3.98542096651 80.2478636158 57.7575422
409 23 2 4.1969784778 81.2284245689 57.4983248242
410 23 2 4.37602658603 82.0936661862 56.957262231
411 23 2 4.4886495512 82.7723611015 56.1825756552
412 23 2 4.50698610759 83.2102851817 55.2437805328
413 23 2 4.4117689436 83.3751599119 54.2253503554
414 23 2 4.19408086577 83.2595944954 53.219017137
415 24 1 12.5073857174 25.9002274189 15.4952042427
416 24 1 9.57348463313 21.7777460901 17.7122660783
417 24 2 12.4978698391 26.374422378 15.7823108028
418 24 2 12.2472274122 27.2275421293 16.3141144084
419 24 2 11.7154168185 27.9639922036 16.8123801926
420 24 2 10.9514053199 28.5102503197 17.2498027706
421 24 2 10.0253246699 28.810129685 17.6046224534
422 24 2 9.02207879225 28.8299002715 17.8626085849
423 24 2 8.03360501475 28.5613632177 18.0183566286
424 24 2 7.15049422784 28.022598133 18.0757807763
425 24 2 6.45373376695 27.2563151895 18.0477571803
426 24 2 6.00732563339 26.3259622042 17.9549503262
427 24 2 5.85245288294 25.3099415397 17.8239295204
428 24 2 6.00372590043 24.2944639385 17.684747169
429 24 2 6.44785070221 23.3656906447 17.568199581
430 24 2 7.14484064718 22.6018800361 17.5030199674
431 24 2 8.03166111232 22.066254583 17.5132594856
432 24 2 9.02797493007 21.8012382884 17.6160950405
433 25 1 44.2123537549 10.5180829192 18.0985676966
434 25 1 41.1639934987 7.40303190625 21.4929672011
435 25 2 44.1131941175 11.0627048643 18.1291600359
436 25 2 43.7036038369 12.0138120462 18.1620377151
437 25 2 43.0339321411 12.8042389734 18.1767041292
438 25 2 42.1624151528 13.3643397509 18.1906780081
439 25 2 41.1656866536 13.6454620965 18.221541205
440 25 2 40.1317931198 13.6243818664 18.2853361563
441 25 2 39.1521685211 13.305419874 18.3951036575
442 25 2 38.313300359 12.7200480591 18.5596942287
443 25 2 37.6888465619 11.9240209048 18.7829614139
444 25 2 37.3329217619 10.9922935652 19.0634105405
445 25 2 37.2751648907 10.0121899038 19.3943349548
446 25 2 37.5180376704 9.07544315648 19.7644273154
447 25 2 38.0366002337 8.26983469217 20.1588102275
448 25 2 38.7807843265 7.67119297592 20.5603922773
449 25 2 39.6799568953 7.33648200684 20.9514258689
450 25 2 40.6493581014 7.29860920185 21.3151248702
451 26 1 21.2512601109 17.7729155736 62.4690229082
452 26 1 18.1290123899 15.3927765773 66.3554735497
453 26 2 21.556830935 18.2009135988 62.6445955424
454 26 2 21.9235356586 19.0752634176 63.0623156056
455 26 2 22.0006356287 19.9709579805 63.5773271159
456 26 2 21.7865217957 20.8003851189 64.1601271672
457 26 2 21.3061284697 21.4819727628 64.7750341092
458 26 2 20.6086606249 21.9476240168 65.3834398343
459 26 2 19.7631089977 22.1489240105 65.9473288034
460 26 2 18.8519617656 22.0615527844 66.4327430608
461 26 2 17.9636859698 21.6875019888 66.8128774111
462 26 2 17.1846639817 21.0548933508 67.0705226408
463 26 2 16.5913199798 20.2154154538 67.1996340926
464 26 2 16.2431540905 19.2396124611 67.2058826193
465 26 2 16.1773191105 18.2104542041 67.1061377012
466 26 2 16.405234129 17.2157737041 66.9269298376
467 26 2 16.9115437075 16.3402614268 66.7020323629
468 26 2 17.6555174879 15.657745973 66.4693830976
469 27 1 25.8764099321 47.6062613797 43.9100703543
470 27 1 25.1758494574 45.1791401259 48.8229400353
471 27 2 25.884686073 47.2597121356 43.4773848855
472 27 2 26.0583547635 46.4962935273 42.7987972156
473 27 2 26.4117409023 45.6333105305 42.3473234121
474 27 2 26.8992146362 44.7366151872 42.1691189473
475 27 2 27.4629243856 43.8751323295 42.2854315241
476 27 2 28.0380698622 43.1145772658 42.6906644039
477 27 2 28.5588084416 42.5114660056 43.352886535
478 27 2 28.9642565427 42.1079639766 44.2167429821
479 27 2 29.2040390032 41.9280427586 45.2085003809
480 27 2 29.2428806414 41.9752951381 46.2427675374
481 27 2 29.0638214943 42.2326076354 47.2302786065
482 27 2 28.6697626733 42.6637203523 48.0860294359
483 27 2 28.0832019351 43.2165319654 48.7370254667
484 27 2 27.3441830718 43.8278486218 49.1289349926
485 27 2 26.5066460263 44.4291438907 49.23104135
486 27 2 25.6335104103 44.9528047637 49.0390426592
487 28 1 12.8821714092 2.94599086894 0.420486946028
488 28 1 11.8269793291 2.93858026021 5.84307911384
489 28 2 13.2878567332 3.28900786855 0.261929877681
490 28 2 13.9252401363 4.08785165832 0.0915156526491
491 28 2 14.3656003846 5.02550236158 0.11006347188
492 28 2 14.5813396758 6.01464004564 0.330320620205
493 28 2 14.5653338078 6.96325187708 0.74664911623
494 28 2 14.33158153 7.78301884569 1.33553959927
495 28 2 13.9139285954 8.39736580607 2.05775414474
496 28 2 13.3629828103 8.74844109759 2.86190269611
497 28 2 12.7415012678 8.80238956853 3.68912713121
498 28 2 12.1186702071 8.55243838274 4.47846602273
499 28 2 11.5637988721 8.01951434552 5.17241110941
500 28 2 11.1400021595 7.25033648125 5.72214902033
501 28 2 10.8984478645 6.31315771921 6.0920104832
502 28 2 10.8736928729 5.29154382148 6.26272148323
503 28 2 11.0805333936 4.27675658707 6.233160038
504 28 2 11.5126563236 3.3594355829 6.02045846322
505 29 1 60.129050085 83.4908888081 65.1894823513
506 29 1 56.3278126978 79.8743114702 63.4606232633
507 29 2 59.9748157263 84.022735882 65.1624261025
508 29 2 59.6276079496 84.9604567661 64.8911765596
509 29 2 59.2162647886 85.7492644886 64.3601123526
510 29 2 58.7597989524 86.3162284963 63.622792364
511 29 2 58.2813359617 86.608638698 62.7515751399
512 29 2 57.8060063188 86.5988098476 61.8310236011
513 29 2 57.3586549298 86.2866049813 60.9501973598
514 29 2 56.9615765578 85.6994479007 60.1945351732
515 29 2 56.6324837146 84.8898235669 59.6380674294
516 29 2 56.3828922129 83.9304942365 59.3366684757
517 29 2 56.2170715306 82.9078673764 59.3229638208
518 29 2 56.1316556593 81.9141198543 59.6033564069
519 29 2 56.1159499069 81.0387962632 60.1574429989
520 29 2 56.1529056904 80.3606471715 60.9398738844
521 29 2 56.2206744685 79.9404512189 61.8844863792
522 29 2 56.2945991778 79.8154753059 62.9103353787
523 30 1 73.5188674081 29.6007757133 77.0046711273
524 30 1 70.9314751324 27.4846666808 81.4030202308
525 30 2 73.6694188142 30.1319461337 77.0554042188
526 30 2 73.7269642828 31.1537965272 77.2165262334
527 30 2 73.4945680601 32.1321275153 77.4661469147
528 30 2 72.998913535 32.9785202151 77.799907309
529 30 2 72.2906793874 33.6165815658 78.2057793529
530 30 2 71.4399203611 33.9889073524 78.6651621987
531 30 2 70.529681962 34.0623144463 79.1545776321
532 30 2 69.6484310817 33.8308653587 79.647810049
533 30 2 68.881992477 33.3164094271 80.1182959371
534 30 2 68.3057260727 32.5665913063 80.5415450696
535 30 2 67.9776581058 31.6505082856 80.8973727237
536 30 2 67.9331921889 30.6524122556 81.1717394641
537 30 2 68.181882366 29.6640303733 81.3580308001
538 30 2 68.7065622865 28.7762043774 81.4576600787
539 30 2 69.4649098726 28.0706106061 81.4799396617
540 30 2 70.393304863 27.6123154175 81.4412321292
541 31 1 74.0919975256 43.2586796451 44.0256830008
542 31 1 68.895170014 41.7178257714 42.9595009264
543 31 2 74.1431708957 43.7517418736 44.2739822418
544 31 2 74.097400154 44.745237473 44.5643639638
545 31 2 73.8594860071 45.7522692988 44.616649446
546 31 2 73.4361585227 46.680911362 44.4381339829
547 31 2 72.8510476988 47.4463826909 44.0571497581
548 31 2 72.1425296522 47.97877489 43.5204834416
549 31 2 71.3602287384 48.2294241036 42.8891117102
550 31 2 70.560494424 48.1753465962 42.2326433861
551 31 2 69.8012651833 47.8213336582 41.6229747786
552 31 2 69.1367875615 47.1995148931 41.1277365282
553 31 2 68.6126717471 46.3664296895 40.8041292541
554 31 2 68.2617343248 45.3978738075 40.6937098706
555 31 2 68.1010071319 44.3819907972 40.8186037859
556 31 2 68.1301848516 43.4112379501 41.1794882296
557 31 2 68.3316528419 42.5739590639 41.7555305256
558 31 2 68.6720926631 41.9463321415 42.5062869346
559 32 1 18.2014845852 89.4784146475 49.425538456
560 32 1 13.4311430957 87.0923429477 50.8637647868
561 32 2 18.2926842802 89.9749822565 49.6546340984
562 32 2 18.2464813745 90.9493895181 50.0036982634
563 32 2 17.9173659686 91.9036395675 50.2372360631
564 32 2 17.3282892689 92.7482379663 50.3516572051
565 32 2 16.5258972585 93.4036847307 50.354228562
566 32 2 15.5762790412 93.807720543 50.2624118152
567 32 2 14.558942996 93.9210015216 50.1022718696
568 32 2 13.5595698008 93.7306853112 49.9061011071
569 32 2 12.662202868 93.2516016285 49.709476022
570 32 2 11.9415880116 92.5249005738 49.5480145192
571 32 2 11.4563605662 91.6143019087 49.4541294369
572 32 2 11.2437009333 90.6002871709 49.4540742032
573 32 2 11.3159456864 89.5727639962 49.5655499064
574 32 2 11.6594631262 88.6228712788 49.7960918877
575 32 2 12.2358957726 87.8346721039 50.1423829156
576 32 2 12.9856565472 87.2774916226 50.5905555423
577 33 1 8.71050067687 69.239042391 3.89069347692
578 33 1 4.51177875881 70.4212729073 0.50084741514
579 33 2 8.59074666121 69.2715988112 4.43104580946
580 33 2 8.28141494981 69.5434609046 5.38175865027
581 33 2 7.87101708861 70.060957423 6.18001986074
582 33 2 7.37909687645 70.7698599636 6.75353682119
583 33 2 6.83262865657 71.5984939764 7.05050174963
584 33 2 6.26355867733 72.4642717075 7.04431384264
585 33 2 5.70589327704 73.2812198526 6.73600386746
586 33 2 5.19259929713 73.9678157934 6.1541402104
587 33 2 4.75259924264 74.4544181668 5.35222494467
588 33 2 4.40813507321 74.6896144888 4.40381725952
589 33 2 4.17274090792 74.644907265 3.39582873663
590 33 2 4.05000942646 74.3173114612 2.42060159185
591 33 2 4.03326440604 73.7296265809 1.56749192894
592 33 2 4.10616924121 72.928358552 0.91472516961
593 33 2 4.24421598178 71.9794808355 0.522266015348
594 33 2 4.41695916703 70.9624211209 0.4263528252