LAMMPS input file for bananas

648 atoms

2 atom types

0 42.5063427673 xlo xhi
0 42.5063427673 ylo yhi
0 42.5063427673 zlo zhi

Masses

 1 1
 2 1

Atoms

1 1 1 22.0318011954 15.9423924854 15.3487239139
2 1 1 25.3905845537 19.0471409557 18.4466429493
3 1 2 22.0906036977 16.0091828987 14.801491884
4 1 2 22.1813976241 16.3624182812 13.8317335437
5 1 2 22.2562177853 16.9849572646 13.0069322532
6 1 2 22.3272789318 17.8220784827 12.4006085848
7 1 2 22.4071384383 18.799501972 12.0663694594
8 1 2 22.5075517328 19.830159592 12.033022019
9 1 2 22.63840082 20.8221310535 12.3019479327
10 1 2 22.8067935637 21.6870222073 12.8469774615
11 1 2 23.0164158238 22.3480219344 13.6167747594
12 1 2 23.2671954999 22.7469032746 14.5395169995
13 1 2 23.5553091032 22.849330658 15.529440832
14 1 2 23.8735302569 22.6479895004 16.4946594842
15 1 2 24.211888362 22.1632529085 17.3455379952
16 1 2 24.5585773898 21.441324725 18.0028632017
17 1 2 24.9010319703 20.5500281726 18.4050638073
18 1 2 25.2270726922 19.5726239479 18.5138224408
19 2 1 36.3184162454 36.2650374624 15.4159594039
20 2 1 36.7620763153 41.2934300572 17.6601574157
21 2 2 35.8813153915 35.9703469438 15.587662432
22 2 2 35.1429655948 35.4781114521 16.1224463226
23 2 2 34.5541311532 35.1125639893 16.8925755741
24 2 2 34.1549231934 34.9205707284 17.8291766651
25 2 2 33.9681688952 34.9331788408 18.8482026112
26 2 2 33.9973308549 35.1627866294 19.8580936225
27 2 2 34.2261914789 35.602013457 20.7681225341
28 2 2 34.6203311744 36.2243724708 21.4966643445
29 2 2 35.1302656026 36.9866848091 21.9786361166
30 2 2 35.6959560445 37.8330152384 22.171429113
31 2 2 36.2522817696 38.699770501 22.058792469
32 2 2 36.734975616 39.5214956701 21.6523144152
33 2 2 37.0864817711 40.2368401917 20.9903660414
34 2 2 37.2612018294 40.7941498233 20.1346038741
35 2 2 37.2296509658 41.1561747804 19.1643500493
36 2 2 36.9811453984 41.3034649546 18.1693623113
37 3 1 38.3206402294 24.5681822274 7.9952587655
38 3 1 34.3462797202 21.5592621634 10.3761933829
39 3 2 38.321097656 25.1052713968 8.13279640768
40 3 2 38.0940522461 26.0961498872 8.33294687657
41 3 2 37.5860293585 26.9902752105 8.45905263816
42 3 2 36.8386806903 27.7054088649 8.51824584338
43 3 2 35.9154718437 28.1756269611 8.52375754384
44 3 2 34.8958976063 28.357329008 8.49371171682
45 3 2 33.8682362133 28.2332119816 8.4494733132
46 3 2 32.9215030228 27.8138474487 8.41370089927
47 3 2 32.1373370031 27.1367179974 8.40828138901
48 3 2 31.5825595599 26.2628007992 8.45233511035
49 3 2 31.3030839429 25.2710097027 8.56047303836
50 3 2 31.3197303763 24.2510024472 8.741465044
51 3 2 31.6263283508 23.2950085995 8.99744054376
52 3 2 32.1902790491 22.4894230755 9.32369440903
53 3 2 32.9555266411 21.9069314744 9.70911582604
54 3 2 33.8476676228 21.5998849804 10.1372010168
55 4 1 18.4331237964 21.3632207135 9.67431871964
56 4 1 20.1677521724 26.3500326967 11.2993607818
57 4 2 18.7047473886 20.9361991846 9.90071400679
58 4 2 19.4029344479 20.2569490976 10.2537071523
59 4 2 20.2943616577 19.7913263777 10.5027112155
60 4 2 21.3005574062 19.588000247 10.6429916899
61 4 2 22.332589236 19.6717322947 10.6797239333
62 4 2 23.2991697999 20.041119524 10.627521448
63 4 2 24.1149774587 20.668722232 10.5091038992
64 4 2 24.7084331206 21.503565065 10.3532262781
65 4 2 25.0282244839 22.4757832858 10.1920579615
66 4 2 25.0479830163 23.5029907578 10.0582505588
67 4 2 24.7686873761 24.4977892211 9.98196180527
68 4 2 24.2185742102 25.3757344104 9.98810676505
69 4 2 23.4505644591 26.0630329239 10.0940868897
70 4 2 22.5374397547 26.5032682947 10.3082039221
71 4 2 21.5652085689 26.6625432012 10.6289032155
72 4 2 20.6252667715 26.5325691171 11.0449154343
73 5 1 15.5736296127 18.8831447249 12.3508357715
74 5 1 14.8827066104 15.5913397732 16.7331452799
75 5 2 16.0761713914 19.1134735361 12.3086221793
76 5 2 16.9768865375 19.604487435 12.45376896
77 5 2 17.7651226501 20.1224991125 12.882485351
78 5 2 18.3803988147 20.6059579654 13.5615676657
79 5 2 18.7779989538 20.996462788 14.4349920322
80 5 2 18.9330475778 21.2440848861 15.4290208205
81 5 2 18.8427771194 21.3119189439 16.4589236296
82 5 2 18.52678019 21.179446845 17.4367002374
83 5 2 18.0252237656 20.8444078437 18.2791015859
84 5 2 17.3951880741 20.3230046262 18.91521771
85 5 2 16.7054638852 19.6484264787 19.2929409915
86 5 2 16.0302824157 18.8678241731 19.3837156293
87 5 2 15.4425493522 18.0380122998 19.1851404239
88 5 2 15.0071996931 17.2202907697 18.7211876411
89 5 2 14.7752790966 16.4748574914 18.0400180031
90 5 2 14.7792912056 15.8553214924 17.2095909683
91 6 1 12.1622147348 32.2179434384 42.5064152028
92 6 1 12.5821523194 28.653021938 38.3072512167
93 6 2 12.0803509688 32.7456792662 42.3575031215
94 6 2 12.1116113891 33.6926547636 41.9383251109
95 6 2 12.369093993 34.5111254013 41.3575854661
96 6 2 12.8174928465 35.124515606 40.6532127408
97 6 2 13.4041005096 35.4749423376 39.8744043134
98 6 2 14.0636121786 35.5284909738 39.0771421776
99 6 2 14.7240780447 35.2783065371 38.3190903334
100 6 2 15.3134613266 34.7452185081 37.6543388674
101 6 2 15.7662042303 33.9758422733 37.1284737862
102 6 2 16.0292033674 33.0383302579 36.7744219736
103 6 2 16.0666499864 32.0161600139 36.6094499931
104 6 2 15.8632938452 31.0005254649 36.633590287
105 6 2 15.4258332295 30.082024823 36.8296382192
106 6 2 14.7823044223 29.3424028044 37.1647202317
107 6 2 13.9795262713 28.8470998171 37.593290182
108 6 2 13.0788327765 28.6392872421 38.0612807516
109 7 1 15.6744306907 28.4990024433 14.1550521542
110 7 1 11.7842358622 27.3382374555 17.9016505983
111 7 2 15.820455964 29.0331487911 14.1277412261
112 7 2 15.8611656426 30.0663576091 14.0623786096
113 7 2 15.5974391048 31.0663184289 13.9993176604
114 7 2 15.0528964984 31.9469951678 13.962823244
115 7 2 14.2767536054 32.6332241686 13.9747387577
116 7 2 13.339335955 33.0675651652 14.052495163
117 7 2 12.3256688394 33.2155368103 14.2075222
118 7 2 11.3277274858 33.0687595574 14.4442065973
119 7 2 10.4360537602 32.6457194342 14.7594922334
120 7 2 9.73150351822 31.9900830907 15.1431586939
121 7 2 9.27787681032 31.1667177009 15.5787528351
122 7 2 9.11610267733 30.2557784927 16.045088444
123 7 2 9.26050857798 29.3454028138 16.5181773048
124 7 2 9.69751447927 28.5236766475 16.9734156611
125 7 2 10.3868706402 27.8706058111 17.3878267821
126 7 2 11.265326268 27.4508236393 17.7421552305
127 8 1 31.2760221907 27.5245441108 36.7380392309
128 8 1 27.0418146665 29.5528331737 39.6493140687
129 8 2 31.6369445227 27.9037606997 36.5555250204
130 8 2 32.1176003594 28.719871014 36.1355441488
131 8 2 32.3091222203 29.6199779303 35.6595431747
132 8 2 32.1947241264 30.5342376236 35.1857369902
133 8 2 31.7855038848 31.3915162813 34.772140438
134 8 2 31.1194315536 32.1258737601 34.4712804138
135 8 2 30.2578885721 32.6825738533 34.3254081802
136 8 2 29.2800730072 33.0230733501 34.3626482768
137 8 2 28.2757808608 33.1285351465 34.5944350437
138 8 2 27.3372214045 33.0015451963 35.0144704122
139 8 2 26.5506125509 32.6658768091 35.5992979564
140 8 2 25.9883223214 32.1643237759 36.3104408842
141 8 2 25.7022726941 31.5547998301 37.097909094
142 8 2 25.7192070547 30.905059965 37.9047556385
143 8 2 26.0382526084 30.2865247477 38.6722672871
144 8 2 26.6309999321 29.7677705248 39.34531608
145 9 1 26.0953647136 20.9643151181 18.8923020439
146 9 1 21.9168596152 17.8445848554 17.0687425326
147 9 2 26.2755754865 21.3464283818 18.5332823799
148 9 2 26.619616469 21.8784836647 17.7135244952
149 9 2 26.9316014348 22.1369405165 16.759944164
150 9 2 27.1666551838 22.1040987404 15.7514199135
151 9 2 27.2869145907 21.7888092313 14.7718382621
152 9 2 27.2649797277 21.2256672396 13.9024476881
153 9 2 27.0864112945 20.4718591076 13.2144530472
154 9 2 26.7510467222 19.6019498862 12.7625254409
155 9 2 26.273014991 18.7010869305 12.5798190913
156 9 2 25.679448811 17.8572389458 12.6749494225
157 9 2 25.0080115489 17.153177875 13.0312077879
158 9 2 24.3034643121 16.6589344577 13.6080844183
159 9 2 23.6135860939 16.4254151148 14.3449607795
160 9 2 22.9848188456 16.479761965 15.1666347894
161 9 2 22.458034417 16.8228788928 15.9901752868
162 9 2 22.0648091965 17.4293491618 16.7324809852
163 10 1 12.6756486591 35.6331106019 37.2343372034
164 10 1 8.85923960539 39.0592890978 39.2872166228
165 10 2 12.9595534123 35.8319824084 36.8016367484
166 10 2 13.2758038963 36.2515551359 35.9086673374
167 10 2 13.2908311993 36.7151139724 34.9822023373
168 10 2 13.0054158103 37.1988605203 34.1115833941
169 10 2 12.4477227664 37.6771563256 33.3810619348
170 10 2 11.6707344852 38.1248597554 32.8621198754
171 10 2 10.7474215591 38.5196175897 32.6069542349
172 10 2 9.76409168101 38.8439024583 32.643719517
173 10 2 8.81252292823 39.0866104132 32.9739615018
174 10 2 7.98159843661 39.2440730242 33.5724763526
175 10 2 7.34920493999 39.3203917464 34.3896078776
176 10 2 6.97513360265 39.3270640834 35.3557735599
177 10 2 6.89563021447 39.2819356206 36.3878068173
178 10 2 7.1200914841 39.207573448 37.3965374141
179 10 2 7.63020855404 39.1292092301 38.2949190899
180 10 2 8.38163580409 39.0724394069 39.0059635936
181 11 1 24.1296239146 23.9016642274 17.1523369785
182 11 1 18.9270503932 23.1805723059 18.8644252522
183 11 2 24.447574228 23.447976937 17.1737152097
184 11 2 24.9607092407 22.5863769249 17.434076284
185 11 2 25.3172299474 21.7645481306 17.9545956685
186 11 2 25.4722672881 21.0437100652 18.6824733489
187 11 2 25.3993168731 20.4758772048 19.5460091564
188 11 2 25.0926547873 20.0991180102 20.4611380465
189 11 2 24.5678593097 19.934085088 21.3390924033
190 11 2 23.8603909952 19.9821327612 22.09449297
191 11 2 23.0223605391 20.2251936258 22.6531309403
192 11 2 22.1177790272 20.627425347 22.9587318927
193 11 2 21.2167234963 21.1384775913 22.9780850537
194 11 2 20.3889495991 21.698081326 22.7040703706
195 11 2 19.6975335636 22.2415421792 22.1563074858
196 11 2 19.1931229629 22.70563716 21.3793674585
197 11 2 18.9093203247 23.0343772644 20.4387102322
198 11 2 18.8596203504 23.1841107236 19.4147181351
199 12 1 27.5313953622 34.6175428524 36.048584012
200 12 1 23.1766346745 31.4216386757 34.8908936786
201 12 2 27.6805836862 34.6246177262 36.5825075816
202 12 2 27.7312132666 34.682805997 37.615706876
203 12 2 27.4797421888 34.7791491881 38.6161719167
204 12 2 26.9462279976 34.8865621516 39.4978039683
205 12 2 26.1764357139 34.9769507596 40.1853356044
206 12 2 25.237666475 35.0237726087 40.6211911329
207 12 2 24.2126232162 35.0044562891 40.7707344662
208 12 2 23.191872519 34.9024587083 40.6254261082
209 12 2 22.2655897095 34.7087729498 40.2036015061
210 12 2 21.5153396183 34.4227492294 39.5487998238
211 12 2 21.0066421641 34.0521541213 38.7257954634
212 12 2 20.7830003885 33.6124626558 37.8146940517
213 12 2 20.8619352697 33.1254478113 36.9036310259
214 12 2 21.2333887327 32.6171959658 36.0807383247
215 12 2 21.8606404152 32.1157291933 35.4261113974
216 12 2 22.6836546311 31.6484511263 35.0045087175
217 13 1 37.8545578848 24.0097815546 44.0337086881
218 13 1 38.8895798238 20.2510140492 40.1198375243
219 13 2 37.6042898857 24.4708678069 43.8544128861
220 13 2 37.3088304931 25.3315903733 43.3591246647
221 13 2 37.249970433 26.1161014652 42.6849378574
222 13 2 37.420904041 26.7458799642 41.8801951935
223 13 2 37.7938805743 27.1565082138 41.0051392196
224 13 2 38.3227336174 27.3035435174 40.1264213528
225 13 2 38.9470890275 27.1665689707 39.3110267817
226 13 2 39.5978678764 26.7510544081 38.6201689459
227 13 2 40.2035828099 26.0878578421 38.1037100943
228 13 2 40.6968539295 25.2304128379 37.7956164747
229 13 2 41.0205502896 24.2498581863 37.7108624008
230 13 2 41.1329972307 23.2285537939 37.8440653837
231 13 2 41.0117749134 22.2525737969 38.1699767311
232 13 2 40.6557618264 21.4038611342 38.6457828988
233 13 2 40.0852370098 20.7527586671 39.2150078298
234 13 2 39.3400316742 20.351597616 39.8126605971
235 14 1 20.5214981302 36.0012213458 19.8495105808
236 14 1 18.2753441701 34.2228009061 24.5728572956
237 14 2 20.4130202212 36.5302174013 19.72390284
238 14 2 19.9876952894 37.4549656227 19.5305393466
239 14 2 19.3087410967 38.2298488292 19.4208706103
240 14 2 18.4388137826 38.7925874592 19.422179721
241 14 2 17.4579761762 39.1002383621 19.5516344345
242 14 2 16.456400283 39.133108952 19.8147223775
243 14 2 15.5261483483 38.896552134 20.2047508648
244 14 2 14.7527816288 38.4204784012 20.7034569199
245 14 2 14.2075617136 37.7566295737 21.2826718967
246 14 2 13.94095522 36.9738626691 21.9068889758
247 14 2 13.9780338968 36.1518737702 22.5364995165
248 14 2 14.3161894011 35.3739339397 23.1314032787
249 14 2 14.9253710419 34.7192992855 23.6546634522
250 14 2 15.7508248203 34.2559869781 24.0758733483
251 14 2 16.7180841101 34.0345756675 24.3739278888
252 14 2 17.7397570916 34.0835953744 24.5389472764
253 15 1 4.28302515899 12.2551643835 1.13152500173
254 15 1 4.40830970623 9.12612090622 5.68250091478
255 15 2 3.86291018227 12.1481174165 0.785944415981
256 15 2 3.1509713923 11.7256641277 0.162946511233
257 15 2 2.57885139041 11.0459972156 -0.370140351532
258 15 2 2.18434440869 10.1675572504 -0.752445831577
259 15 2 1.98905572721 9.16690243471 -0.936842908197
260 15 2 1.99643241041 8.13173052814 -0.894243382694
261 15 2 2.1914491164 7.15288543092 -0.616249189947
262 15 2 2.54197761676 6.31607700512 -0.1159178596
263 15 2 3.00171519864 5.69406884986 0.573427642868
264 15 2 3.51440503332 5.34004609371 1.40123621538
265 15 2 4.01896383574 5.28276771236 2.3043362171
266 15 2 4.45504944273 5.52394522487 3.21269339465
267 15 2 4.76856083983 6.03808669328 4.05579431715
268 15 2 4.91656932424 6.77482024463 4.76907348693
269 15 2 4.87123134127 7.66348533251 5.29979831211
270 15 2 4.62232634999 8.61957325706 5.61187554138
271 16 1 29.9212234332 8.15868993865 5.79650173884
272 16 1 26.4513029214 4.96554251069 8.67425298019
273 16 2 29.9658132495 8.67989394608 5.98018548599
274 16 2 29.8141095301 9.64851480029 6.31516255014
275 16 2 29.3695106591 10.5303048323 6.62857632552
276 16 2 28.6718819137 11.2423854788 6.91089759207
277 16 2 27.7841515678 11.7173467336 7.1554311288
278 16 2 26.7865751482 11.9093913891 7.35892596528
279 16 2 25.7694203576 11.7985093297 7.52187169895
280 16 2 24.8247394151 11.3923014 7.64845386959
281 16 2 24.037978742 10.7252866087 7.74617245853
282 16 2 23.4801907494 9.85575581248 7.82515828545
283 16 2 23.2015576003 8.8604586608 7.89724961123
284 16 2 23.2268172399 7.82760807024 7.97491311207
285 16 2 23.5530085981 6.84883985295 8.07010757533
286 16 2 24.1497414828 6.01086035731 8.193193888
287 16 2 24.9619665649 5.38754341601 8.35199066953
288 16 2 25.9149929776 5.03319694367 8.5510616256
289 17 1 28.6975332446 28.3008831686 10.4588047751
290 17 1 23.3701660913 28.6869716747 9.04880976064
291 17 2 29.0544529059 28.3411271902 10.0364656198
292 17 2 29.5834553098 28.2524668822 9.15004257311
293 17 2 29.8841618561 27.9699411177 8.19967171044
294 17 2 29.9208077032 27.532736973 7.26107721392
295 17 2 29.6816964364 26.9941400452 6.40890988136
296 17 2 29.1802661649 26.4166776128 5.7099429056
297 17 2 28.4538646742 25.8664194409 5.21698567643
298 17 2 27.560345275 25.4069556992 4.96407034584
299 17 2 26.5727936287 25.0936008877 4.96334988834
300 17 2 25.5728661846 24.9683520677 5.20399038982
301 17 2 24.6433474132 25.0560609425 5.65315852987
302 17 2 23.8606042224 25.3621686905 6.25901425115
303 17 2 23.2876253182 25.8722100165 6.95543584209
304 17 2 22.9682799528 26.5531316249 7.66804675418
305 17 2 22.923319359 27.3563049389 8.32099482552
306 17 2 23.148485331 28.2219584655 8.8438660027
307 18 1 24.5057782806 28.6090156927 36.1641158502
308 18 1 21.1691064775 25.3119927535 39.0820349851
309 18 2 24.4680328239 29.14812724 36.2878720949
310 18 2 24.1669374897 30.1184958768 36.4907915853
311 18 2 23.5893441149 30.9624666293 36.6567713233
312 18 2 22.7855932761 31.6025848752 36.7897496362
313 18 2 21.8266391987 31.9799766034 36.8966728427
314 18 2 20.7975824682 32.0597146226 36.9868621148
315 18 2 19.7899133396 31.8340020817 37.0711638781
316 18 2 18.8931726452 31.3228831316 37.1609611887
317 18 2 18.1867903869 30.5724159546 37.2671361984
318 18 2 17.7328459042 29.6504746841 37.3990782753
319 18 2 17.5704095078 28.6405628591 37.5638281884
320 18 2 17.7119813255 27.6342022991 37.7654363601
321 18 2 18.1423519491 26.7225911355 38.0045936809
322 18 2 18.8199887309 25.9882913456 38.2785685369
323 18 2 19.6808213739 25.4977034487 38.5814557887
324 18 2 20.644081768 25.2950142764 38.9047150094
325 19 1 8.67309090339 26.8729900965 28.5637444059
326 19 1 3.88679557804 29.5008081817 29.4027558663
327 19 2 8.82834967438 26.8342019003 28.032922611
328 19 2 8.89971624815 26.6806939383 27.0107718741
329 19 2 8.67732767059 26.4489420616 26.0257417226
330 19 2 8.17602963757 26.1771580902 25.1607077544
331 19 2 7.43608969637 25.9072026622 24.4876082361
332 19 2 6.51952696638 25.6807697491 24.0608871222
333 19 2 5.50445926209 25.5355863615 23.9125316341
334 19 2 4.47798286314 25.5019738328 24.0491567105
335 19 2 3.52823392118 25.6000841108 24.4514020731
336 19 2 2.73635508524 25.8380629617 25.0756968648
337 19 2 2.16909956614 26.211307505 25.8582310162
338 19 2 1.87274675972 26.7028857538 26.7207713635
339 19 2 1.86888400363 27.2850799203 27.5777923916
340 19 2 2.15243894918 27.9219128181 28.344271657
341 19 2 2.69214189239 28.5724270864 28.9434393557
342 19 2 3.4333759239 29.1944183439 29.3137756857
343 20 1 8.22318151019 31.8667807864 8.49539735639
344 20 1 2.90940939101 32.4342316891 9.8953317834
345 20 2 8.33184623077 31.4394368464 8.15931593255
346 20 2 8.41158338898 30.5190461316 7.69030321525
347 20 2 8.31223481083 29.5149052078 7.45518435955
348 20 2 8.02756664412 28.5187422843 7.46375616551
349 20 2 7.56823642182 27.6215583971 7.70360368071
350 20 2 6.96082165642 26.9053329075 8.14123178998
351 20 2 6.24539737076 26.4355513026 8.72511820564
352 20 2 5.47188336672 26.2552363682 9.39040958628
353 20 2 4.69549416879 26.3810267764 10.0648327455
354 20 2 3.97170636767 26.801660516 10.6752821597
355 20 2 3.35120207735 27.4790013936 11.1544833412
356 20 2 2.87524939586 28.3515150468 11.4471247278
357 20 2 2.57194092842 29.3398776361 11.5148991841
358 20 2 2.45363322161 30.354206001 11.3399955944
359 20 2 2.5158204971 31.3022502703 10.9267222981
360 20 2 2.73754534139 32.0978021907 10.3011143965
361 21 1 27.8269610006 21.2321885466 27.1467870936
362 21 1 26.8106285912 17.0689173413 30.6327923096
363 21 2 27.5645793356 21.7058633254 27.2658234487
364 21 2 26.8847488779 22.4520915752 27.4991128811
365 21 2 26.0146946195 22.958581028 27.7439067386
366 21 2 25.0345959248 23.179392219 27.9970844979
367 21 2 24.0346624148 23.0946244936 28.2547614651
368 21 2 23.1069116007 22.7122298984 28.512642856
369 21 2 22.336781734 22.0672883739 28.7664152533
370 21 2 21.7953443381 21.2188103115 29.0121397637
371 21 2 21.5328262289 20.2443579138 29.2466110372
372 21 2 21.5740314749 19.2329756075 29.4676494263
373 21 2 21.9160805723 18.2770738819 29.6742996552
374 21 2 22.5286729046 17.4640063194 29.86691789
375 21 2 23.3568485625 16.8681075504 30.0471392759
376 21 2 24.3259977927 16.5439178501 30.2177288977
377 21 2 25.3486614775 16.5212119383 30.3823297497
378 21 2 26.3325027999 16.8022850934 30.5451306866
379 22 1 16.023432314 21.5743308535 37.4919841694
380 22 1 16.2430870678 21.7143199426 43.0101492544
381 22 2 16.5043458962 21.6780663364 37.2363620575
382 22 2 17.4070665127 22.0596791553 36.9003305766
383 22 2 18.2531017144 22.6464197991 36.7845296025
384 22 2 18.9778754289 23.3759058488 36.911033267
385 22 2 19.5278642446 24.1727440231 37.2798302813
386 22 2 19.8654759259 24.9554020746 37.8688249656
387 22 2 19.9724758456 25.6436402362 38.6358512111
388 22 2 19.8516490221 26.1658248614 39.5225158079
389 22 2 19.5265462726 26.4654576396 40.4595208301
390 22 2 19.0393376188 26.5063252664 41.3729799567
391 22 2 18.4469686025 26.2758001892 42.1911530121
392 22 2 17.8159698514 25.7859915751 42.8509848913
393 22 2 17.2163929903 25.0726415926 43.3038528645
394 22 2 16.7154256225 24.1918676083 43.5199984087
395 22 2 16.37126736 23.2150472393 43.4912396175
396 22 2 16.2278250835 22.2223124736 43.2317169602
397 23 1 35.1020583256 7.62889578027 7.21923502497
398 23 1 35.5009580349 10.6936755277 11.798098987
399 23 2 35.2575428325 7.09996795573 7.27789943159
400 23 2 35.7405201179 6.206752532 7.48368854657
401 23 2 36.4283994514 5.50514046694 7.81234116529
402 23 2 37.2518029117 5.05497717324 8.25144224908
403 23 2 38.1289999152 4.89318918014 8.77850967691
404 23 2 38.9733567408 5.030418379 9.36304343058
405 23 2 39.7012329619 5.45005204331 9.96930558991
406 23 2 40.2396050474 6.10973703437 10.5595777486
407 23 2 40.5327222619 6.94524017663 11.0975989461
408 23 2 40.5471881959 7.87630293997 11.5518707576
409 23 2 40.2750047594 8.81395679024 11.8985282905
410 23 2 39.7343011863 9.6686324333 12.1235154066
411 23 2 38.9676816033 10.3583238169 12.2238659005
412 23 2 38.0383417776 10.8160627629 12.2079738622
413 23 2 37.0243089916 10.9960229381 12.0948285776
414 23 2 36.0113300647 10.8776968016 11.912283706
415 24 1 35.6344520113 14.9781093795 30.0424975397
416 24 1 36.4858802624 9.52354962943 29.8404111035
417 24 2 35.1952153083 15.1350166514 30.3422187682
418 24 2 34.262118753 15.267220187 30.7726871814
419 24 2 33.2590293911 15.1697618627 31.0130278109
420 24 2 32.2780593793 14.8391573148 31.0560217664
421 24 2 31.409304755 14.2931728346 30.9124377796
422 24 2 30.7326334227 13.5692060185 30.6100506629
423 24 2 30.3104054081 12.7208770773 30.1911097095
424 24 2 30.1817889087 11.8131414971 29.7084877834
425 24 2 30.3591902174 10.9163695201 29.2208620989
426 24 2 30.8271229213 10.0999320857 28.7873659496
427 24 2 31.5436194478 9.42587785423 28.4621988667
428 24 2 32.4440562959 8.94327763778 28.2896864764
429 24 2 33.4470442962 8.68375172659 28.3002403378
430 24 2 34.4618470155 8.65858778424 28.5075860105
431 24 2 35.396651141 8.85771200722 28.9075120061
432 24 2 36.1669350175 9.25060732524 29.4782536551
433 25 1 13.5848584663 27.8610921028 15.1714649875
434 25 1 13.2203619605 26.201228225 9.91504174866
435 25 2 13.2175444175 28.2489211751 15.3199593926
436 25 2 12.6082502893 29.0826966044 15.4037997767
437 25 2 12.134540128 29.986019555 15.2219857476
438 25 2 11.823882596 30.8708878862 14.7815882619
439 25 2 11.6888845445 31.6509815466 14.1132474669
440 25 2 11.7261419327 32.2495304161 13.2683799335
441 25 2 11.9165500966 32.606311697 12.3144921728
442 25 2 12.2270450884 32.683139061 11.3290275985
443 25 2 12.6136173671 32.4673432312 10.3923077661
444 25 2 13.0253231501 31.9729267528 9.58021127841
445 25 2 13.408927803 31.2392876981 8.95725765344
446 25 2 13.7137580347 30.3276286382 8.57072654274
447 25 2 13.8963206316 29.3153781917 8.4463483176
448 25 2 13.9242667485 28.2891336132 8.58595881447
449 25 2 13.779340419 27.3367676851 8.96733200336
450 25 2 13.4590425381 26.5394193483 9.54620583109
451 26 1 25.2418085358 27.3443874943 27.2612395045
452 26 1 26.2025675477 24.3811655264 31.8235030601
453 26 2 24.8715351037 27.7526105769 27.3215146106
454 26 2 24.0474769561 28.345406215 27.528810322
455 26 2 23.1219192676 28.675737883 27.856947436
456 26 2 22.1834016312 28.7199826889 28.2936132746
457 26 2 21.3216449048 28.4805937937 28.8166030568
458 26 2 20.619373394 27.9858768119 29.395843805
459 26 2 20.1447747538 27.287409831 29.9961354162
460 26 2 19.9452848653 26.455342206 30.5803590575
461 26 2 20.0432641821 25.5720006339 31.1128604486
462 26 2 20.433959635 24.7243852944 31.5626996539
463 26 2 21.0859378612 23.9962400172 31.9064711754
464 26 2 21.9439502716 23.4604192548 32.1304373007
465 26 2 22.9339688118 23.1722475941 32.2317802592
466 26 2 23.9699334215 23.1644770687 32.2188590541
467 26 2 24.961596179 23.4443018977 32.1104475618
468 26 2 25.822747158 23.9927027526 31.9340233433
469 27 1 34.2747563591 17.953900314 18.8472693181
470 27 1 31.5047237049 14.5584101824 22.2111297376
471 27 2 34.2220663115 18.4931884795 18.9646303913
472 27 2 33.8937513424 19.4509292479 19.1846120107
473 27 2 33.2940235313 20.266800883 19.4039976046
474 27 2 32.4775923268 20.8662704121 19.6220030704
475 27 2 31.5189191124 21.1945293361 19.8379701004
476 27 2 30.5054302508 21.2214892773 20.0514261849
477 27 2 29.5295484042 20.9445244555 20.2621276803
478 27 2 28.6802684561 20.38871102 20.4700820162
479 27 2 28.0350458653 19.6045414259 20.6755470187
480 27 2 27.6527368078 18.663322182 20.8790074097
481 27 2 27.5682335939 17.6506744529 21.0811306264
482 27 2 27.789284327 16.6587299186 21.2827059857
483 27 2 28.295786685 15.7777332183 21.4845727401
484 27 2 29.0416201933 15.0878163927 21.6875435825
485 27 2 29.9588499823 14.6516950626 21.8923305709
486 27 2 30.9639188699 14.5089520676 22.0994802267
487 28 1 22.3915283821 14.1583075665 41.3200940643
488 28 1 22.5115373509 19.6296742593 42.0735762612
489 28 2 22.7098999235 13.9725075816 40.9059690647
490 28 2 23.1950754169 13.7925760965 40.0083726005
491 28 2 23.5120830311 13.8533891095 39.0238636056
492 28 2 23.6474593285 14.1607442726 38.0437329648
493 28 2 23.6042960807 14.6979675797 37.1588724879
494 28 2 23.4019584613 15.4274331576 36.4514903638
495 28 2 23.0743199628 16.2939927643 35.9876181038
496 28 2 22.6666749178 17.2300024032 35.8110919462
497 28 2 22.2316100416 18.161487893 35.9395572997
498 28 2 21.8242112941 19.0148874164 36.3628604123
499 28 2 21.4970429414 19.7237564834 37.0439738581
500 28 2 21.2953564636 20.2348241687 37.9223714884
501 28 2 21.2529660031 20.5128486142 38.9195452284
502 28 2 21.3891662963 20.5438292304 39.9461608784
503 28 2 21.7069740096 20.3362828124 40.9102006872
504 28 2 22.1928527785 19.9204672571 41.7253505243
505 29 1 11.2004234451 26.7967860275 36.0077455652
506 29 1 11.2616916282 24.5574630552 30.9580257812
507 29 2 11.1548830941 26.4333166854 36.423915845
508 29 2 10.8887513568 25.672829827 37.0752864368
509 29 2 10.4185984369 24.8558532072 37.5053509037
510 29 2 9.79814573528 24.0423188936 37.6686003352
511 29 2 9.09481407634 23.2918451969 37.5438452979
512 29 2 8.38357847982 22.6583026211 37.1361471963
513 29 2 7.74013438824 22.1849037111 36.4763569386
514 29 2 7.23399822968 21.9002643446 35.6183029594
515 29 2 6.92217118108 21.8157954714 34.6338849016
516 29 2 6.84394366336 21.924663036 33.6065201563
517 29 2 7.01731412458 22.2024108832 32.62354059
518 29 2 7.43734852945 22.6091898714 31.768232479
519 29 2 8.0766300835 23.0933900156 31.1122451878
520 29 2 8.88775820063 23.596344599 30.7090605207
521 29 2 9.80766893978 24.0576774881 30.5891179985
522 29 2 10.7633831147 24.4208062553 30.7570403777
523 30 1 5.76342639419 37.6021459437 14.1251992007
524 30 1 10.8293438516 38.5525669105 12.1374438431
525 30 2 5.74904677347 37.3255460917 14.6054775954
526 30 2 5.86572905896 36.6598650316 15.39078262
527 30 2 6.17175411662 35.8611576239 15.9754749769
528 30 2 6.65430399901 35.0097109947 16.3155253551
529 30 2 7.28447099274 34.1906193089 16.3892029061
530 30 2 8.01989247924 33.4860276651 16.1990559528
531 30 2 8.80861217427 32.967644789 15.7716797163
532 30 2 9.59381580432 32.6902069746 15.1552922329
533 30 2 10.3190095758 32.6864890179 14.4153394088
534 30 2 10.9331694334 32.9643168811 13.6285298011
535 30 2 11.3953917662 33.5058543777 12.8758428369
536 30 2 11.6786216626 34.2692288928 12.235147756
537 30 2 11.7721188932 35.1923479602 11.7741060372
538 30 2 11.682436854 36.1985588247 11.5440042356
539 30 2 11.4328252417 37.203635136 11.5750793499
540 30 2 11.0611109064 38.1234539551 11.8737628012
541 31 1 30.3846988603 20.2853569465 38.5201262111
542 31 1 28.3389621947 16.3938413486 41.8651312794
543 31 2 30.3105011657 20.8062327529 38.6949537962
544 31 2 29.9482747582 21.7109080594 39.0468126183
545 31 2 29.3276880992 22.4523983157 39.4189878589
546 31 2 28.5079519712 22.961287713 39.796498485
547 31 2 27.5664290981 23.1893613892 40.1638771574
548 31 2 26.5915827406 23.1140000845 40.5065800376
549 31 2 25.6749135055 22.7402418266 40.8123124195
550 31 2 24.9026193106 22.1003227281 41.0721493589
551 31 2 24.3477386747 21.2507387506 41.281349159
552 31 2 24.0634934517 20.2670962493 41.4397855623
553 31 2 24.078437801 19.2372206552 41.5519592598
554 31 2 24.3938555521 18.2531514225 41.6265876642
555 31 2 24.983643187 17.4027528778 41.6758103413
556 31 2 25.7966891063 16.7617056217 41.7140825211
557 31 2 26.7615323145 16.3866084445 41.7568575422
558 31 2 27.7928758991 16.3098194977 41.8191783212
559 32 1 4.09313682799 18.1967953277 5.03501758964
560 32 1 4.00270126702 20.652564985 0.0873911020129
561 32 2 4.59970043459 18.09832753 5.23769712325
562 32 2 5.58320077497 17.8185698078 5.40476809176
563 32 2 6.54355460782 17.4504922865 5.27951049642
564 32 2 7.40276099953 17.0433888282 4.86782959831
565 32 2 8.09203833537 16.6501104049 4.20173737704
566 32 2 8.55809357992 16.3222478736 3.33643472431
567 32 2 8.76797979472 16.1054296077 2.34528003024
568 32 2 8.71209916371 16.0351625925 1.31310276212
569 32 2 8.4050778085 16.1335960583 0.328471485236
570 32 2 7.88443265647 16.4075026379 -0.524378925159
571 32 2 7.20715187308 16.8476610584 -1.17322506757
572 32 2 6.44450054299 17.429696636 -1.56443798426
573 32 2 5.67552504798 18.1163029636 -1.66787129745
574 32 2 4.97984820057 18.8606422891 -1.47960897103
575 32 2 4.43041183746 19.6106146526 -1.02232224681
576 32 2 4.08682836608 20.3136066573 -0.34320322143
577 33 1 12.2064267087 35.2152063358 22.3094851991
578 33 1 13.6494042087 35.9512700152 27.5909638988
579 33 2 12.0284787119 35.6717791559 22.0501449622
580 33 2 11.5565556451 36.5452696743 21.7539137273
581 33 2 10.9517772424 37.3862211706 21.7316949168
582 33 2 10.2809537566 38.1313952064 21.9927725271
583 33 2 9.6169152735 38.7262832024 22.5206088429
584 33 2 9.03187344395 39.1300747506 23.274351806
585 33 2 8.59083958498 39.3193773731 24.1925585712
586 33 2 8.34569907199 39.2903486845 25.1987958569
587 33 2 8.33048212548 39.0590466148 26.2086066354
588 33 2 8.5582620474 38.6599657721 27.1372081642
589 33 2 9.01996362462 38.1428933512 27.9072197072
590 33 2 9.68519031033 37.5683711638 28.4557155813
591 33 2 10.5049947881 37.0021774143 28.7399606649
592 33 2 11.4163403888 36.5093311924 28.7413055895
593 33 2 12.3478467147 36.1481661566 28.4668865799