LAMMPS input file for bananas

648 atoms

2 atom types

0 33.7373066121 xlo xhi
0 33.7373066121 ylo yhi
0 33.7373066121 zlo zhi

Masses

 1 1
 2 1

Atoms

1 1 1 15.2724292562 17.9396625579 22.0107966597
2 1 1 9.89961093021 17.7614308388 23.2098344478
3 1 2 15.6112791734 17.9519152687 22.4494438486
4 1 2 16.1035525649 18.1498243438 23.3389365002
5 1 2 16.3665354875 18.5485808004 24.2579204727
6 1 2 16.3674144505 19.0999796697 25.1346512098
7 1 2 16.0972649421 19.7419036739 25.9012352477
8 1 2 15.5718648374 20.4039847895 26.499818239
9 1 2 14.8302563533 21.0140178106 26.8878579799
10 1 2 13.9311876182 21.5045413583 27.0420018405
11 1 2 12.9477581828 21.8189865229 26.9602151966
12 1 2 11.9607564972 21.9168327319 26.6619668721
13 1 2 11.0512965977 21.7773009228 26.1864546888
14 1 2 10.2934251183 21.4012474118 25.589032854
15 1 2 9.747372448 20.8110858466 24.9361668039
16 1 2 9.45406314342 20.0487443563 24.2993753348
17 1 2 9.43138593634 19.1718440895 23.7487121552
18 1 2 9.6725632983 18.2484474418 23.3463809704
19 2 1 27.5959607463 9.66954461011 4.83088256674
20 2 1 26.2170092115 8.03578405962 9.90690010567
21 2 2 27.6701278452 10.2157462503 4.77135306707
22 2 2 27.5993951863 11.2490296441 4.76681542821
23 2 2 27.2704585152 12.2199257589 4.91466559476
24 2 2 26.7218877176 13.0444612828 5.21783142563
25 2 2 26.0122708238 13.652002668 5.66508482176
26 2 2 25.2148741119 13.9916938952 6.23206509043
27 2 2 24.4109643883 14.03709165 6.88349925533
28 2 2 23.6824020758 13.7885754509 7.57641694652
29 2 2 23.1041801976 13.2733130576 8.26406685509
30 2 2 22.7375892767 12.5427843171 8.90017779436
31 2 2 22.6246311253 11.6680891278 9.44317600137
32 2 2 22.7841906679 10.7334671713 9.85997430031
33 2 2 23.2103147094 9.82862004361 10.1289877717
34 2 2 23.8727545282 9.04053556886 10.2421010701
35 2 2 24.7197228398 8.44555945607 10.2054080815
36 2 2 25.6826138528 8.10243691102 10.0386565083
37 3 1 16.2936225687 2.12093463756 9.57804914034
38 3 1 20.9717206039 5.02009760022 9.36151319472
39 3 2 16.228830335 1.74792791188 9.17301988129
40 3 2 16.1616511941 1.2328194415 8.27700174651
41 3 2 16.1846026533 0.988817039479 7.27070441003
42 3 2 16.3133358376 1.03147407164 6.24391016777
43 3 2 16.553860593 1.35021686175 5.28826946808
44 3 2 16.9019977301 1.9093084096 4.48894760176
45 3 2 17.3437599288 2.65110557358 3.91686246967
46 3 2 17.8566265867 3.50131284781 3.6222209023
47 3 2 18.4115964171 4.37575388815 3.62994265142
48 3 2 18.975830718 5.18804360881 3.93738912552
49 3 2 19.5156463945 5.85746159068 4.51460387936
50 3 2 19.9995859418 6.31630919409 5.30704293855
51 3 2 20.4012845811 6.51607982569 6.24054610887
52 3 2 20.7018732287 6.43187998183 7.22809616954
53 3 2 20.8916982832 6.06469812079 8.17774989626
54 3 2 20.9712014856 5.44131457154 9.00101805575
55 4 1 15.4982495021 15.6951371771 8.08886522287
56 4 1 20.1579381201 16.8322167024 5.38128566478
57 4 2 15.4914677393 15.2066514924 8.35100353605
58 4 2 15.5516215406 14.2118004146 8.63269685206
59 4 2 15.7163372542 13.1892820251 8.62788562347
60 4 2 15.988445924 12.2312373697 8.3436223985
61 4 2 16.3609904624 11.4239311553 7.8124298589
62 4 2 16.8178597409 10.8398893134 7.08933660048
63 4 2 17.335257009 10.5312887587 6.24686165385
64 4 2 17.8838688051 10.525201821 5.36840487205
65 4 2 18.4315366772 10.8211287881 4.54064560567
66 4 2 18.9461882057 11.3910434509 3.84564247437
67 4 2 19.3987601841 12.1819475002 3.35335428627
68 4 2 19.7658475316 13.1207009597 3.11526377229
69 4 2 20.0318365051 14.1206883926 3.15968528811
70 4 2 20.1903277853 15.0897133056 3.48918415488
71 4 2 20.2447197307 15.9384012266 4.08034284768
72 4 2 20.2078986403 16.5883455754 4.88589534244
73 5 1 18.8370759644 19.5343813534 14.6546527014
74 5 1 17.6741665465 16.3127317407 18.968033091
75 5 2 18.6493496743 20.0547109355 14.6920253881
76 5 2 18.0954725151 20.9210962146 14.8156979868
77 5 2 17.3252459515 21.5842822822 15.014779758
78 5 2 16.4117366985 21.9876221257 15.289581662
79 5 2 15.441070706 22.0981519346 15.6335132881
80 5 2 14.5045833688 21.9095955254 16.0336835256
81 5 2 13.6904949317 21.4429363729 16.4720754997
82 5 2 13.0758698187 20.7445051103 16.9271886866
83 5 2 12.7195927396 19.8817568093 17.3759985385
84 5 2 12.657001752 18.9371229133 17.7960550132
85 5 2 12.8966674399 18.0004981764 18.167528742
86 5 2 13.4196117636 17.1610473723 18.4750183402
87 5 2 14.1810377779 16.4990785375 18.708954138
88 5 2 15.1144125667 16.0787234434 18.8664703901
89 5 2 16.1375312618 15.9420924258 18.9516664691
90 5 2 17.1600094533 16.1054363159 18.9752332351
91 6 1 30.6714336647 17.8138983622 10.5676615641
92 6 1 28.5750458086 12.9127249068 11.953407444
93 6 2 30.3340582756 18.2460770621 10.6500033509
94 6 2 29.5493153717 18.9210609515 10.6856908141
95 6 2 28.6202746336 19.3663244647 10.5792860131
96 6 2 27.6231398998 19.5364740113 10.3568681057
97 6 2 26.6403213098 19.4111907527 10.055090049
98 6 2 25.7529241849 18.9970825247 9.71783793365
99 6 2 25.0333568338 18.3270815791 9.39223106749
100 6 2 24.5387310322 17.4574430345 9.12432737373
101 6 2 24.3056566755 16.4626176078 8.95492552704
102 6 2 24.3469050384 15.4284659418 8.91584643409
103 6 2 24.6502447604 14.4444329968 9.02703297601
104 6 2 25.1795566506 13.5953957547 9.2947323516
105 6 2 25.878125704 12.9539272652 9.71092668791
106 6 2 26.673810286 12.573682109 10.2540638144
107 6 2 27.4856173472 12.4845061509 10.8910215956
108 6 2 28.2310843847 12.6897162942 11.5801267866
109 7 1 11.0404794264 18.7284447683 -1.93042886574
110 7 1 7.32396974371 20.394047622 1.77766469278
111 7 2 11.1830533149 18.1937110298 -1.89706321188
112 7 2 11.4813719624 17.2452004723 -1.60718051495
113 7 2 11.783086642 16.4312613068 -1.04222958076
114 7 2 12.0439992451 15.8179090612 -0.249498915632
115 7 2 12.2236304927 15.4528771409 0.702962413341
116 7 2 12.2889093439 15.3612662563 1.73254698417
117 7 2 12.217187195 15.5432566649 2.74961812014
118 7 2 11.9983021439 15.9740917421 3.66567965834
119 7 2 11.6355051783 16.606334378 4.40144176815
120 7 2 11.1451638701 17.3741905444 4.8940476757
121 7 2 10.5552705835 18.1995059699 5.10280262784
122 7 2 9.90289116309 18.9988893652 5.01288293993
123 7 2 9.23078663623 19.691312968 4.63668707298
124 7 2 8.58351583836 20.2054976677 4.01270559901
125 7 2 8.00337418082 20.4864096078 3.20201304926
126 7 2 7.52653871406 20.5002761442 2.28270138944
127 8 1 26.0134468637 22.7538291379 12.0460706356
128 8 1 30.3144690246 25.3926007067 9.83819203688
129 8 2 26.0946052345 22.5590897443 12.558779753
130 8 2 26.4416261585 22.1044127339 13.4222283998
131 8 2 27.0226556559 21.5802790596 14.100746554
132 8 2 27.7950676893 21.0484358203 14.5403153093
133 8 2 28.698793015 20.5713327891 14.7086943587
134 8 2 29.6617940833 20.2064305444 14.5983604777
135 8 2 30.6066307668 20.000963332 14.2271932144
136 8 2 31.4575184971 19.9876339877 13.6368452915
137 8 2 32.1472355091 20.1816332982 12.8889462461
138 8 2 32.6232496433 20.5792554643 12.0594853199
139 8 2 32.8525062926 21.15823586 11.2318855608
140 8 2 32.8244411028 21.8797802998 10.4894003842
141 8 2 32.551942841 22.6921008632 9.90752559462
142 8 2 32.0701786732 23.5351360083 9.54711846122
143 8 2 31.4333889176 24.3460247697 9.44885099457
144 8 2 30.7099434122 25.0648361044 9.62950297193
145 9 1 6.84943294584 15.2002653745 8.54260176964
146 9 1 5.06060859709 15.1284838117 13.7514010347
147 9 2 7.17802255768 15.6274057984 8.41236860618
148 9 2 7.62008469527 16.5527107944 8.26714463427
149 9 2 7.81287745445 17.57029717 8.27401422461
150 9 2 7.7492025194 18.589263012 8.44823358817
151 9 2 7.44523684623 19.5185806781 8.78980615149
152 9 2 6.93905824441 20.2753933429 9.28348224432
153 9 2 6.28717484544 20.7925668288 9.90014900255
154 9 2 5.55937477412 21.0248084266 10.5994838061
155 9 2 4.83236543943 20.9527950151 11.3336294095
156 9 2 4.18278218016 20.5849342313 12.0515558013
157 9 2 3.68020347912 19.9565981716 12.7037112402
158 9 2 3.38080936155 19.1268994682 13.2465385562
159 9 2 3.32226097096 18.1733035775 13.6464450882
160 9 2 3.52026801409 17.1845683352 13.8828644246
161 9 2 3.96715692888 16.252654288 13.9501308909
162 9 2 4.63257027704 15.4643431201 13.8579959369
163 10 1 18.3082072405 16.3781609821 18.1065581365
164 10 1 22.3064230842 13.2580316709 15.9581405617
165 10 2 17.8942419507 16.502417564 17.7593207648
166 10 2 17.2961392934 16.7985202538 16.9673013966
167 10 2 16.9714379746 17.1399892198 16.0449856861
168 10 2 16.947822041 17.4793981953 15.0667515086
169 10 2 17.2255336708 17.7695086676 14.1120733242
170 10 2 17.7773511008 17.9675753446 13.2582786261
171 10 2 18.5510697032 18.0392420952 12.5735000691
172 10 2 19.4742600801 17.9616732747 12.1104656456
173 10 2 20.4608695056 17.7256350379 11.9016928906
174 10 2 21.4190650428 17.3363369402 11.9565251311
175 10 2 22.2596034858 16.8129571224 12.2602799062
176 10 2 22.9039652659 16.1868943552 12.7755871727
177 10 2 23.2915109726 15.4989062557 13.4457953279
178 10 2 23.3850082194 14.7953945109 14.2001346155
179 10 2 23.1740251212 14.1241756813 14.9601673031
180 10 2 22.6758810885 13.5301230498 15.6469367439
181 11 1 17.028262362 17.162256704 16.6508148939
182 11 1 14.4197231016 12.6396464331 18.4052818188
183 11 2 16.935523572 17.6189824679 16.9511178161
184 11 2 16.536480044 18.4125597966 17.4837504824
185 11 2 15.8766060389 19.0592305164 17.951811962
186 11 2 15.0156396272 19.4929946799 18.330340375
187 11 2 14.0316470735 19.6672573127 18.6025341666
188 11 2 13.0139076319 19.5590752258 18.7612834539
189 11 2 12.0547763539 19.1712481298 18.8098180425
190 11 2 11.2412665587 18.5320634607 18.7614130525
191 11 2 10.6471191658 17.692718174 18.6381789816
192 11 2 10.3260817155 16.7226524931 18.4690464854
193 11 2 10.3070096496 15.703220909 18.2871295462
194 11 2 10.5912363352 14.7202772765 18.1267073608
195 11 2 11.1524515377 13.8563498237 18.0201000262
196 11 2 11.9390994183 13.1831192698 17.9947227851
197 11 2 12.8790774952 12.7548856194 18.0705873138
198 11 2 13.8863082903 12.6036190887 18.2584777956
199 12 1 13.4657034772 27.9794690007 13.9612487383
200 12 1 12.1562220138 24.1798181544 17.7274864724
201 12 2 13.7464922281 27.789264376 13.5226593748
202 12 2 14.4084746399 27.3363324911 12.8674263893
203 12 2 15.1882861705 26.779088167 12.474907586
204 12 2 16.0064479254 26.1514657364 12.3779555435
205 12 2 16.77998565 25.4938140141 12.5824839569
206 12 2 17.4299922641 24.8492187789 13.0669286446
207 12 2 17.8888197014 24.2595758003 13.7842129757
208 12 2 18.1062445667 23.7617723263 14.6660385822
209 12 2 18.0540456541 23.3843250639 15.6291102871
210 12 2 17.7285761167 23.1447810764 16.5827278883
211 12 2 17.1510958513 23.0481184891 17.4370528606
212 12 2 16.3658338047 23.0862927674 18.1112965212
213 12 2 15.4359568088 23.2389699207 18.5410833641
214 12 2 14.4378123562 23.4753798066 18.6843184462
215 12 2 13.4539700505 23.757120618 18.5250240529
216 12 2 12.5656959524 24.0416589448 18.074795957
217 13 1 5.38919062724 21.5531132297 26.0640558969
218 13 1 8.91709790709 17.4286747159 25.1262328336
219 13 2 4.99961711895 21.4478600613 26.444233492
220 13 2 4.23897212142 21.0558020305 27.0276783989
221 13 2 3.50506411842 20.433549149 27.4109259242
222 13 2 2.87460200104 19.6277595869 27.5719196232
223 13 2 2.41486627715 18.7018196241 27.5088599636
224 13 2 2.17757691436 17.7300664262 27.2403683405
225 13 2 2.19417941959 16.7910127207 26.803789864
226 13 2 2.47297879669 15.9601909008 26.2517896087
227 13 2 2.99838260228 15.3032687652 25.6475525526
228 13 2 3.7323220901 14.8700643487 25.0590247003
229 13 2 4.61772191617 14.6900053501 24.5527202701
230 13 2 5.58370216512 14.7694469984 24.187659379
231 13 2 6.55203856849 15.0910928184 24.0099887638
232 13 2 7.44429211051 15.6155710848 24.0487758225
233 13 2 8.18895820659 16.2850232856 24.3133593203
234 13 2 8.72798385596 17.0283775287 24.7924982247
235 14 1 5.61496300055 15.0203354423 13.2711901089
236 14 1 11.102227174 15.0453733536 12.7958587295
237 14 2 5.37158109467 14.5338263984 13.1641623101
238 14 2 5.0473573769 13.633205491 12.7686130299
239 14 2 4.92859194504 12.8051884354 12.1578914903
240 14 2 5.03850249186 12.1129770067 11.3953554054
241 14 2 5.3794644625 11.6073952283 10.558199344
242 14 2 5.93279454894 11.3222571106 9.73041897441
243 14 2 6.6604535454 11.2712847356 8.99515543462
244 14 2 7.50851336119 11.4468575832 8.4271175881
245 14 2 8.41207219641 11.8207070898 8.0857728228
246 14 2 9.30116989605 12.3464931335 8.0099270066
247 14 2 10.1071643385 12.9640276188 8.21418759843
248 14 2 10.7689876941 13.6047602088 8.68763227857
249 14 2 11.2387123396 14.1980262184 9.39480444321
250 14 2 11.4859191319 14.6774872157 10.2789448308
251 14 2 11.5004699046 14.9871773158 11.2671647395
252 14 2 11.2934314926 15.0866040867 12.2770893329
253 15 1 32.0181853241 27.5419420756 20.9673985354
254 15 1 30.0591032842 23.4910022183 24.143641404
255 15 2 31.8693450758 28.0537309257 21.1200402893
256 15 2 31.375109861 28.9170721485 21.4082620037
257 15 2 30.6411296413 29.5898981362 21.6933523375
258 15 2 29.7350742087 30.0096009665 21.9683275335
259 15 2 28.7402968312 30.1366431575 22.2271257598
260 15 2 27.7482371736 29.9581612378 22.4651596044
261 15 2 26.8500871993 29.4891381643 22.6797341866
262 15 2 26.128479648 28.7710377278 22.8702927762
263 15 2 25.6499566278 27.8680254132 23.0384675365
264 15 2 25.4589047584 26.8611201554 23.187930763
265 15 2 25.5735096351 25.8408100186 23.3240601794
266 15 2 25.9840983364 24.8988048299 23.4534487949
267 15 2 26.6540210445 24.1196774571 23.5833039962
268 15 2 27.5229914248 23.573155572 23.720790644
269 15 2 28.5125813122 23.307766451 23.8723780452
270 15 2 29.5333689005 23.3464140462 24.0432503194
271 16 1 0.422813575536 19.9919605414 2.63292489982
272 16 1 1.7320726883 19.3042640336 7.93853975729
273 16 2 0.637367743211 19.6157420269 2.28679358068
274 16 2 1.23937515861 18.9661061911 1.74989636164
275 16 2 2.05255566688 18.4240541417 1.4069454792
276 16 2 3.00142282357 18.0230388016 1.29953930116
277 16 2 3.99812327648 17.7836585649 1.44780791043
278 16 2 4.95044399644 17.7117798939 1.848578386
279 16 2 5.77021686263 17.7980026318 2.47566399292
280 16 2 6.38135458238 18.0185167624 3.28225092365
281 16 2 6.72678552615 18.3372725295 4.20516505567
282 16 2 6.77365541535 18.7092661256 5.17062983963
283 16 2 6.51632176454 19.0846414798 6.10099052596
284 16 2 5.97686815529 19.4132342974 6.92179186293
285 16 2 5.20309146915 19.649144191 7.56856418235
286 16 2 4.26414552957 19.7549181863 7.99269936782
287 16 2 3.24423820505 19.704964304 8.16588115127
288 16 2 2.23495643924 19.487884093 8.08266594666
289 17 1 12.0235202696 16.9266488559 8.56473941821
290 17 1 7.88088293799 13.3240672482 9.00813159906
291 17 2 11.9850721235 17.371307904 8.89364795046
292 17 2 11.6961326952 18.2160807863 9.41859657204
293 17 2 11.1431131798 19.0048849612 9.79893281843
294 17 2 10.3692997854 19.6581982187 10.0159417798
295 17 2 9.43810256852 20.1088474168 10.0657947087
296 17 2 8.42727604202 20.3081308534 9.9598979839
297 17 2 7.42183238441 20.2302570917 9.7238534972
298 17 2 6.5062931626 19.8746956736 9.39512521671
299 17 2 5.75698577056 19.266225467 9.01962460286
300 17 2 5.23508671069 18.4526762419 8.64752609357
301 17 2 4.98104577504 17.5005693146 8.32869404827
302 17 2 5.01089932411 16.4890545862 8.1081379534
303 17 2 5.31480868253 15.5026965716 8.0219101163
304 17 2 5.85795686685 14.6237669235 8.09381974459
305 17 2 6.58372191489 13.9247459356 8.33326290012
306 17 2 7.4188375894 13.461716461 8.73436611236
307 18 1 7.67533094151 3.94272624515 24.4825047002
308 18 1 8.95336886062 9.0218621457 26.1870962959
309 18 2 8.10119968978 3.58861502472 24.4575686932
310 18 2 8.99951260408 3.10099313267 24.2903650165
311 18 2 9.96724389973 2.88192333174 23.9933753991
312 18 2 10.9261705098 2.9562742879 23.6091489516
313 18 2 11.7988718539 3.32217137683 23.1881858234
314 18 2 12.5157861938 3.95116754309 22.7843344606
315 18 2 13.0215507082 4.79083605416 22.4498836891
316 18 2 13.2800474351 5.76954883771 22.230796947
317 18 2 13.2776951758 6.80300488924 22.1625230316
318 18 2 13.0246873284 7.80191373072 22.2667651855
319 18 2 12.5540628293 8.68013362547 22.549502994
320 18 2 11.9186948806 9.36252280681 23.0004473876
321 18 2 11.1864719206 9.79178813499 23.5939784195
322 18 2 10.4341100575 9.93370697401 24.2914803486
323 18 2 9.74016092259 9.78024635028 25.0448611994
324 18 2 9.17785222759 9.35029510309 25.8009360156
325 19 1 22.1809485435 9.74298424715 28.2712365083
326 19 1 19.6362726595 6.3387115652 31.7744046572
327 19 2 22.1210535773 10.2828742726 28.3821964339
328 19 2 21.780743092 11.2363176533 28.6009034629
329 19 2 21.172570567 12.0419213489 28.8329102224
330 19 2 20.3528427321 12.6263857146 29.0761096326
331 19 2 19.3971481337 12.9365664395 29.3273744802
332 19 2 18.3934677562 12.9443182858 29.5828424425
333 19 2 17.4341561588 12.6490603349 29.8382681117
334 19 2 16.6075239905 12.0778289333 30.0894099349
335 19 2 15.9897890803 11.2828135157 30.3324168022
336 19 2 15.638129704 10.3365998955 30.5641790492
337 19 2 15.5854731769 9.32555456575 30.7826118818
338 19 2 15.8374947546 8.34195298508 30.9868453902
339 19 2 16.3721003724 7.47556930275 31.177303836
340 19 2 17.1414403675 6.80549406019 31.355666983
341 19 2 18.0762706484 6.39292563046 31.524716999
342 19 2 19.0922638182 6.2755924061 31.6880848794
343 20 1 28.4085231087 24.9237856137 13.2459519562
344 20 1 28.1741367141 19.4996529745 12.3183296965
345 20 2 28.0426353498 25.1154287696 13.6157894886
346 20 2 27.2046660313 25.3533122226 14.1760725913
347 20 2 26.2337843654 25.4046628823 14.5330742322
348 20 2 25.2183840639 25.2507887569 14.6671758813
349 20 2 24.2509164069 24.8917026869 14.5790748143
350 20 2 23.4194639426 24.3461211742 14.289720561
351 20 2 22.7997123671 23.6497585022 13.8384054995
352 20 2 22.4480522917 22.8520716228 13.2791836251
353 20 2 22.3964396256 22.0117524947 12.6759438993
354 20 2 22.6494830139 21.1913787141 12.0965872088
355 20 2 23.1840237909 20.4517099953 11.6068376655
356 20 2 23.9512467342 19.8461503395 11.2642523043
357 20 2 24.8811292368 19.4158806264 11.1129751536
358 20 2 25.8888233885 19.1861052591 11.1797138103
359 20 2 26.8823892806 19.1637549559 11.4713052251
360 20 2 27.7711746983 19.3368550624 11.9740925613
361 21 1 25.0114624834 13.5228590712 1.24301640258
362 21 1 29.8178952569 11.411700136 2.90970379715
363 21 2 24.9993093047 14.0754712003 1.19997123317
364 21 2 25.0660341066 15.0999057921 1.33701078603
365 21 2 25.257894653 16.0349885296 1.73889145971
366 21 2 25.5747608349 16.7991835241 2.36202876744
367 21 2 26.0051091365 17.326530133 3.14267219719
368 21 2 26.5270729251 17.5726548203 4.0027156338
369 21 2 27.110435444 17.5188155 4.85681619587
370 21 2 27.7193838638 17.1736097488 5.62017265426
371 21 2 28.3157733751 16.572191196 6.21625448272
372 21 2 28.8626038272 15.7730655111 6.58377709069
373 21 2 29.3273920379 14.8527580131 6.68228749351
374 21 2 29.6851324127 13.8988389126 6.49585132464
375 21 2 29.9205760333 13.0019418873 6.03450514395
376 21 2 30.0296204924 12.2475034434 5.33334167405
377 21 2 30.0196837993 11.7079759646 4.44931133927
378 21 2 29.9090282798 11.4362241732 3.4560316249
379 22 1 19.9506811758 4.25241570828 6.57323717591
380 22 1 16.6228441336 7.68637860324 9.30637353984
381 22 2 20.4336249163 4.14398941435 6.82301674656
382 22 2 21.3487393713 4.17569403915 7.30701945539
383 22 2 22.202692963 4.50746876302 7.79012096321
384 22 2 22.9123735206 5.10805329785 8.24657467803
385 22 2 23.4078183711 5.92168718425 8.65306277146
386 22 2 23.6385909574 6.8731919751 8.99082143897
387 22 2 23.5783777847 7.87482323562 9.24735109196
388 22 2 23.227386715 8.83426784699 9.41755560959
389 22 2 22.6123280222 9.66305771421 9.50420681528
390 22 2 21.7839799334 10.2846330264 9.51769184395
391 22 2 20.8125605417 10.6413201588 9.47506642593
392 22 2 19.781327909 10.699588228 9.39850037409
393 22 2 18.7789916635 10.4531052023 9.31325695733
394 22 2 17.8916277261 9.92331502286 9.24539032691
395 22 2 17.1948330802 9.15748313547 9.21937085912
396 22 2 16.7468356245 8.22438856935 9.25585484831
397 23 1 31.6371847723 12.6796977016 30.8625662518
398 23 1 27.0171128596 10.9195122727 28.4349506101
399 23 2 31.8061445367 12.3766064109 31.2949653951
400 23 2 31.8991493075 11.8368638887 32.174013968
401 23 2 31.6928731302 11.3598232536 33.0698826203
402 23 2 31.2020832228 10.9712915809 33.8950290784
403 23 2 30.4674782797 10.6890089608 34.5683569116
404 23 2 29.5519790638 10.5210316107 35.022606916
405 23 2 28.5349936108 10.4649976065 35.2104873301
406 23 2 27.5051797313 10.5083421555 35.1089841538
407 23 2 26.5523644589 10.6294427913 34.7214587175
408 23 2 25.7593569321 10.7995901133 34.0773413196
409 23 2 25.1944009088 10.9856044516 33.2294488566
410 23 2 24.9049548164 11.1528599667 32.2491709249
411 23 2 24.9133662406 11.2684405571 31.2199631489
412 23 2 25.2148350968 11.3041399365 30.2297407728
413 23 2 25.7778511246 11.2390324432 29.3628657888
414 23 2 26.5470658322 11.0613802709 28.6924579202
415 24 1 12.5671270536 2.97383034986 18.5929122106
416 24 1 16.0411162817 7.23955270847 18.8605809033
417 24 2 12.7959946401 2.477572323 18.6863378509
418 24 2 13.3802861549 1.62253450889 18.700899211
419 24 2 14.1311917154 0.93284493797 18.5187800026
420 24 2 14.9926665384 0.4754097747 18.1704806028
421 24 2 15.8985882104 0.295966786663 17.7016475735
422 24 2 16.7787832924 0.414916660612 17.1689132906
423 24 2 17.5654231478 0.825463619741 16.6347342913
424 24 2 18.1992060575 1.49423481215 16.1616987887
425 24 2 18.6347621647 2.36432201749 15.8068221853
426 24 2 18.844788627 3.36046844107 15.6163505102
427 24 2 18.8225380825 4.39592785475 15.6215454103
428 24 2 18.5824336262 5.38037092085 15.8358348659
429 24 2 18.1587542435 6.22811809202 16.2535893219
430 24 2 17.6025105156 6.86594871453 16.8506347835
431 24 2 16.976795355 7.23977458883 17.58645611
432 24 2 16.3510335189 7.31956973815 18.4078896921
433 25 1 29.2150409716 13.4007517286 22.8786124507
434 25 1 29.0801809378 8.5538944404 25.4913547124
435 25 2 29.1493960449 13.8452323216 23.2034331669
436 25 2 28.8399358913 14.5566487832 23.8895959046
437 25 2 28.3215420859 15.0525908821 24.6365949462
438 25 2 27.6512585239 15.2827427437 25.3918752505
439 25 2 26.8999728104 15.2210134513 26.1021269962
440 25 2 26.1459553412 14.8679150542 26.718144406
441 25 2 25.467725493 14.250515898 27.1993105166
442 25 2 24.9368951205 13.4199735302 27.5172991358
443 25 2 24.6116416266 12.4468720409 27.6586565812
444 25 2 24.5314054912 11.4147888067 27.6260278907
445 25 2 24.7132955421 10.4126769859 27.4379157457
446 25 2 25.150529602 9.52675804788 27.1269940784
447 25 2 25.8130526381 8.83266327734 26.7371300672
448 25 2 26.6502760719 8.38854050139 26.3193859437
449 25 2 27.5956885816 8.22975431362 25.9273650205
450 25 2 28.5729181526 8.3656628339 25.6123261171
451 26 1 14.2370264191 33.2580465673 20.4658393974
452 26 1 10.8955050871 30.7810843274 16.8553646119
453 26 2 14.7781656397 33.1671487376 20.3865508099
454 26 2 15.7226573834 32.7717913513 20.2305823699
455 26 2 16.5063056236 32.1161928143 20.0609231084
456 26 2 17.0588760963 31.2603716364 19.874016032
457 26 2 17.3311956916 30.2825952482 19.6678761673
458 26 2 17.2996342457 29.2722464618 19.4422714775
459 26 2 16.9682582684 28.3216768399 19.1987440115
460 26 2 16.3684603082 27.5177894844 18.9404693561
461 26 2 15.5560977372 26.934118414 18.6719672035
462 26 2 14.6064017344 26.6241264431 18.3986894119
463 26 2 13.6071204795 26.6163324125 18.1265231065
464 26 2 12.650521508 26.9117118925 17.861254108
465 26 2 11.8249821578 27.4836082667 17.6080395949
466 26 2 11.206934581 28.2801622994 17.3709380622
467 26 2 10.8538994771 29.2290387499 17.1525394167
468 26 2 10.7992434757 30.2440192331 16.9537289259
469 27 1 1.73811879641 27.763795455 20.0596373615
470 27 1 3.80545294669 27.6120788335 25.1625528522
471 27 2 2.03239785441 27.4895084011 19.6781308744
472 27 2 2.76192817953 27.0997556455 19.0547717762
473 27 2 3.67057690104 26.8872359704 18.6054487747
474 27 2 4.68117489987 26.8559824899 18.3809199885
475 27 2 5.70726107929 26.9935071473 18.4114550849
476 27 2 6.66096270111 27.2719389155 18.7040764069
477 27 2 7.46100438328 27.6505640506 19.2419189349
478 27 2 8.04011579375 28.0795368701 19.9857674178
479 27 2 8.35116288001 28.5044228453 20.8776305739
480 27 2 8.37144381482 28.8711599354 21.8460265991
481 27 2 8.10475811212 29.1309859716 22.8124982427
482 27 2 7.58106032739 29.2448829949 23.6987636485
483 27 2 6.85372990529 29.1871334752 24.4338512087
484 27 2 5.99470600925 28.947664288 24.9605681397
485 27 2 5.08793075992 28.5329648106 25.2407132124
486 27 2 4.22169848644 27.9654954599 25.2585585317
487 28 1 31.741103603 11.2444324628 2.3276644231
488 28 1 27.2056593868 12.940143271 4.95272547828
489 28 2 32.1818119405 11.576647487 2.38048573215
490 28 2 32.8527164881 12.3648998979 2.4157489673
491 28 2 33.2710680674 13.3117353489 2.38135629597
492 28 2 33.3972071954 14.3364014999 2.29861289408
493 28 2 33.2181075505 15.3510522759 2.19323077518
494 28 2 32.7485632326 16.2687544349 2.09298531663
495 28 2 32.0298403821 17.0114109365 2.02518372443
496 28 2 31.1259160544 17.5168789519 2.01417616859
497 28 2 30.1176471497 17.7446337567 2.07913643212
498 28 2 29.095400861 17.6794622813 2.2323143521
499 28 2 28.1508183241 17.3328496787 2.47791933108
500 28 2 27.3684621561 16.7419325307 2.81173667886
501 28 2 26.8181091531 15.9661141034 3.22151175263
502 28 2 26.5483906131 15.0816501471 3.68806688362
503 28 2 26.582359927 14.1746987069 4.18704929013
504 28 2 26.9153914198 13.3334674081 4.69115066663
505 29 1 17.9024041544 0.764978938394 4.54977719734
506 29 1 20.7228832014 5.06111318731 6.53087875649
507 29 2 18.0889063215 0.562628443212 4.06847482836
508 29 2 18.4283803602 0.40984247391 3.1019800815
509 29 2 18.7449470954 0.56234017498 2.12769663997
510 29 2 19.0286198257 1.00769598469 1.23669369052
511 29 2 19.2724099127 1.70679233258 0.512449973994
512 29 2 19.4729637476 2.5973849378 0.0232452705087
513 29 2 19.6308684096 3.59977594857 -0.184062834422
514 29 2 19.7505981573 4.62407785492 -0.0883096975263
515 29 2 19.8401066314 5.57840611902 0.304047370094
516 29 2 19.9101019342 6.37725382073 0.9595176426
517 29 2 19.9730706599 6.94928502722 1.82062942946
518 29 2 20.042139827 7.24383657411 2.81116822601
519 29 2 20.1298804406 7.23553566556 3.84312314301
520 29 2 20.2471617314 6.92661243065 4.82470849581
521 29 2 20.4021605002 6.34669666242 5.66872944019
522 29 2 20.5996158578 5.55011726536 6.30052918458
523 30 1 12.2895508985 11.5315257673 16.4074950759
524 30 1 10.1003386293 8.70443520829 20.5969513102
525 30 2 12.2211821994 12.0811173885 16.43309825
526 30 2 11.8681774928 13.0511035551 16.5180263664
527 30 2 11.2535079037 13.8725318756 16.6599245044
528 30 2 10.4353957179 14.4738114976 16.8645058789
529 30 2 9.4906056193 14.8034166131 17.1317705575
530 30 2 8.50744811481 14.8345826827 17.4560054547
531 30 2 7.57773063745 14.5677458401 17.8263050399
532 30 2 6.78838992814 14.030503141 18.2275653021
533 30 2 6.2135683478 13.2750972813 18.6418603768
534 30 2 5.90785630955 12.3736550329 19.0500763658
535 30 2 5.90131673677 11.4116133837 19.4336534378
536 30 2 6.19674503378 10.4799325411 19.7762774299
537 30 2 6.76941430388 9.66680553341 20.0653667718
538 30 2 7.56932903647 9.04962001961 20.2932192092
539 30 2 8.52578185509 8.68790493492 20.457713812
540 30 2 9.55379800993 8.61790483646 20.5625042824
541 31 1 7.99369666989 13.1338042845 16.2438606885
542 31 1 6.77883745364 15.5052292657 21.0643477563
543 31 2 8.51114577551 12.939436911 16.2008665162
544 31 2 9.53613766901 12.7908475061 16.1975381394
545 31 2 10.5569097513 12.9261584114 16.308954413
546 31 2 11.4833531476 13.3260171787 16.5424364698
547 31 2 12.233956396 13.9469596359 16.8941799835
548 31 2 12.7432346587 14.7253713482 17.3496019069
549 31 2 12.9676982156 15.5832856381 17.8846696166
550 31 2 12.8898162545 16.435489713 18.4680913216
551 31 2 12.519614684 17.1972912274 19.064168096
552 31 2 11.8937623412 17.7922374093 19.636047591
553 31 2 11.0722288782 18.1590832062 20.1490828739
554 31 2 10.1328189396 18.257373352 20.5739902585
555 31 2 9.16408080249 18.0711295869 20.8895183124
556 31 2 8.25723580833 17.6103069661 21.084384779
557 31 2 7.49786416286 16.9098865252 21.1583048786
558 31 2 6.9581048872 16.0266869983 21.1220172631
559 32 1 13.4326060571 23.9059925322 12.9148343271
560 32 1 8.0869841331 23.0988606325 11.8615066149
561 32 2 13.7679684895 23.8652790369 12.4752263178
562 32 2 14.2805544083 23.5862752547 11.6195915613
563 32 2 14.595554611 23.0736388636 10.7765749103
564 32 2 14.6737313827 22.3822604462 10.0093835734
565 32 2 14.4974318404 21.5833216953 9.3743138018
566 32 2 14.0721968725 20.7578076907 8.91561987183
567 32 2 13.4262561249 19.9891256642 8.66148061111
568 32 2 12.6079550617 19.3555030028 8.62143109164
569 32 2 11.6813486085 18.9228573579 8.78549357327
570 32 2 10.7203629843 18.7387887041 9.12508690641
571 32 2 9.8020578341 18.8282409274 9.59563150779
572 32 2 8.99960277009 19.1912283611 10.1406124839
573 32 2 8.37560846352 19.8028344796 10.6967305759
574 32 2 7.97642011111 20.6154828687 11.1996714533
575 32 2 7.82789338815 21.5632734894 11.5899675241
576 32 2 7.93303788098 22.5679890151 11.8184179982
577 33 1 16.5973676802 10.4615442676 19.8649521152
578 33 1 13.7492047961 7.11543921895 23.1858231028
579 33 2 16.5545541349 11.0017619469 19.9820529732
580 33 2 16.2437879717 11.9653036686 20.2004791928
581 33 2 15.6589563627 12.7922141372 20.4170186516
582 33 2 14.8533286805 13.4069311922 20.6309935359
583 33 2 13.900298346 13.7532326481 20.8419597752
584 33 2 12.886693521 13.799360561 21.0497475166
585 33 2 11.9048633169 13.5409157472 21.2544766052
586 33 2 11.0442608064 13.001258739 21.4565456616
587 33 2 10.383289989 12.2293806323 21.6565957499
588 33 2 9.98215980384 11.2954378837 21.8554519494
589 33 2 9.87739649827 10.2843580311 22.0540481542
590 33 2 10.0785145103 9.28809913038 22.2533419551
591 33 2 10.5671492931 8.39726840932 22.4542273617
592 33 2 11.2987311172 7.69286403995 22.6574533198
593 33 2 12.2065472963 7.2388927105 22.8635554499