LAMMPS input file for bananas

4320 atoms

2 atom types

0 126.992084157 xlo xhi
0 126.992084157 ylo yhi
0 126.992084157 zlo zhi

Masses

 1 1
 2 1

Atoms

1 1 1 51.3734357439 20.4636896572 114.88306852
2 1 1 49.5822694266 15.2490940232 114.53998448
3 1 2 51.4533570336 20.6497412171 115.399187685
4 1 2 51.3852622154 20.9147076912 116.398490379
5 1 2 51.0470119673 21.0381292903 117.369986076
6 1 2 50.476686435 20.993217173 118.233792594
7 1 2 49.7335188059 20.7685256665 118.919843331
8 1 2 48.8924963628 20.3689955083 119.374273649
9 1 2 48.0375255929 19.8155035122 119.564330493
10 1 2 47.2537843365 19.1429597017 119.481357744
11 1 2 46.6199580537 18.3971253552 119.1415852
12 1 2 46.2010678559 17.6304419873 118.584649273
13 1 2 46.0425440045 16.8972514454 117.869980238
14 1 2 46.1660850643 16.2488427953 117.071385322
15 1 2 46.5676801377 15.72877746 116.27032137
16 1 2 47.2179744465 15.3689187121 115.548470274
17 1 2 48.0649449422 15.1865274224 114.980293886
18 1 2 49.0386420673 15.1826887768 114.626247018
19 2 1 71.4409682845 36.3339018098 25.9729439515
20 2 1 70.642200749 40.3823026804 22.3000143475
21 2 2 70.9926985531 36.1941796532 26.2677550009
22 2 2 70.1409310952 36.1647627424 26.8568872901
23 2 2 69.3275759628 36.4390519567 27.4371190255
24 2 2 68.6128526771 36.9934204493 27.9423874794
25 2 2 68.0479907304 37.7787128962 28.313462627
26 2 2 67.6705601541 38.7247258719 28.5033458047
27 2 2 67.5010471115 39.7466067043 28.4815535126
28 2 2 67.5409866381 40.7525875689 28.2368959041
29 2 2 67.7728227278 41.6523498809 27.7784967108
30 2 2 68.1615085156 42.3652565927 27.134961638
31 2 2 68.6577007056 42.827702045 26.3517710319
32 2 2 69.2022570808 42.9989094531 25.4871344673
33 2 2 69.731627158 42.8646476016 24.6066851004
34 2 2 70.1836446444 42.4385279814 23.7774973819
35 2 2 70.5031937292 41.7607641394 23.0619734005
36 2 2 70.6472327423 40.8945063203 22.5121550989
37 3 1 15.0902565956 87.4734407204 60.9713972817
38 3 1 19.3289582498 89.1931797643 64.0687989297
39 3 2 14.6025297024 87.7078273949 61.0920909124
40 3 2 13.7461674166 88.0839152874 61.5377943381
41 3 2 13.0342977719 88.3648433702 62.2362004037
42 3 2 12.5370166694 88.5430971573 63.1274843672
43 3 2 12.3048608383 88.6205206506 64.1342411819
44 3 2 12.3642015476 88.6081482637 65.1685407591
45 3 2 12.714840936 88.5251990646 66.1399425611
46 3 2 13.330030046 88.3973250093 66.9637390142
47 3 2 14.1589069202 88.254272834 67.5686763776
48 3 2 15.1311325326 88.1271727204 67.9034493319
49 3 2 16.1633020027 88.0457008621 67.9413773213
50 3 2 17.1665467279 88.0353745593 67.6828364152
51 3 2 18.0546345184 88.115226385 67.1552250303
52 3 2 18.7518294314 88.2960694167 66.4104666384
53 3 2 19.1997948999 88.5795116537 65.5202770807
54 3 2 19.3629109542 88.9578094514 64.5696278604
55 4 1 91.4638956937 97.9519250946 7.16721778031
56 4 1 94.8717305667 95.0432308631 10.3989588602
57 4 2 90.9520508132 97.744034298 7.12055062899
58 4 2 90.1099911925 97.1561555785 6.98349510123
59 4 2 89.4810614311 96.3517546035 6.8078920323
60 4 2 89.1193296632 95.3977703827 6.62757496216
61 4 2 89.0545096402 94.374776039 6.47680709937
62 4 2 89.2892524015 93.3696347834 6.38715832121
63 4 2 89.7989046392 92.4675825656 6.38462766379
64 4 2 90.5337557817 91.7444590454 6.48727357931
65 4 2 91.423568979 91.2597950096 6.70356795651
66 4 2 92.3839830038 91.0513863006 7.03162393056
67 4 2 93.3242015523 91.131848826 7.45936786582
68 4 2 94.1552690844 91.4874686527 7.96563983541
69 4 2 94.7981788832 92.0794519947 8.52212229201
70 4 2 95.1910743065 92.8474611636 9.09592113663
71 4 2 95.2948868541 93.7151141871 9.65256392777
72 4 2 95.0968971573 94.5969468221 10.1591419523
73 5 1 40.7356199048 46.3412727069 82.0669834914
74 5 1 39.1922931989 42.5142895593 85.7399024572
75 5 2 40.6349755304 46.8648791388 82.2189328328
76 5 2 40.2309298735 47.7609330007 82.5464761049
77 5 2 39.5828387371 48.4777801445 82.920050813
78 5 2 38.7537329023 48.9495174904 83.3243989332
79 5 2 37.8231421561 49.1325830614 83.7414575274
80 5 2 36.8798463641 49.0097265414 84.1520051316
81 5 2 36.0137834226 48.5915815951 84.5374137414
82 5 2 35.3078516603 47.915696638 84.8813467042
83 5 2 34.8303538767 47.0431123988 85.1712477621
84 5 2 34.6287717248 46.05279822 85.3994855207
85 5 2 34.7254378853 45.0344542134 85.5640490307
86 5 2 35.115500502 44.0803353347 85.6687310801
87 5 2 35.7673654164 43.2768425908 85.7227824924
88 5 2 36.62557589 42.6966478192 85.7400689379
89 5 2 37.6158673382 42.3920698439 85.7378071156
90 5 2 38.6519363484 42.3903057544 85.7349954969
91 6 1 100.380573544 7.96513518215 70.3806273318
92 6 1 102.689585016 3.97604693614 67.3353634602
93 6 2 99.8974426267 7.82916059198 70.6161629245
94 6 2 98.9384827168 7.50605961682 70.8385402215
95 6 2 97.9864063322 7.10405935581 70.7650803053
96 6 2 97.1310853016 6.64149694627 70.4074324854
97 6 2 96.4535724618 6.14222960347 69.8031490391
98 6 2 96.018713908 5.63346009926 69.0122624221
99 6 2 95.869238446 5.14325730211 68.1118134701
100 6 2 96.0218629757 4.69799777474 67.188829333
101 6 2 96.4657687898 4.31996162097 66.3323911824
102 6 2 97.1635876708 4.02530171379 65.6255147012
103 6 2 98.0548079036 3.82257140415 65.137583426
104 6 2 99.0612897569 3.71194490591 64.9180246227
105 6 2 100.094387711 3.68520141666 64.9918041241
106 6 2 101.063030259 3.72647442195 65.3571507603
107 6 2 101.882020832 3.81369788562 65.9857177964
108 6 2 102.479803241 3.92061751008 66.8251666617
109 7 1 126.380691559 76.2596230515 101.469093933
110 7 1 123.652171079 72.8736188239 104.876166345
111 7 2 126.335429488 76.7988122434 101.589957279
112 7 2 126.020615494 77.7584389071 101.821168927
113 7 2 125.433156587 78.5786524224 102.056948132
114 7 2 124.627051883 79.1844342684 102.295010252
115 7 2 123.676229479 79.5203107976 102.532862567
116 7 2 122.667808102 79.5554095108 102.768031479
117 7 2 121.694156471 79.2862730027 102.998287974
118 7 2 120.844474138 78.7371740955 103.221850794
119 7 2 120.196661183 77.9579034356 103.437548789
120 7 2 119.810217833 77.0192312095 103.644927669
121 7 2 119.720821171 76.0064566306 103.844291408
122 7 2 119.937073273 75.0116331434 104.036674539
123 7 2 120.439717144 74.1251779986 104.223747858
124 7 2 121.183391945 73.4276309621 104.407666137
125 7 2 122.100767513 72.9823133305 104.590871721
126 7 2 123.108681323 72.8295563644 104.775871916
127 8 1 124.430221106 102.733816876 60.2743263638
128 8 1 123.102498775 101.947714083 65.5787760875
129 8 2 124.264544094 103.218151515 60.0613646924
130 8 2 123.747065662 104.061742663 59.7547377892
131 8 2 123.00424571 104.768002648 59.603524811
132 8 2 122.106691894 105.284505048 59.6362727732
133 8 2 121.139115448 105.576119341 59.8647611432
134 8 2 120.192609979 105.628212953 60.2829281735
135 8 2 119.356348535 105.44798498 60.8674234135
136 8 2 118.709455712 105.06381001 61.579736041
137 8 2 118.313795665 104.522651855 62.3697050205
138 8 2 118.20833335 103.885782923 63.1800911476
139 8 2 118.405582979 103.223199405 63.9517942493
140 8 2 118.890467377 102.607241308 64.6292400072
141 8 2 119.621692229 102.105998856 65.1654454077
142 8 2 120.535509946 101.777106248 65.5263011184
143 8 2 121.551530087 101.662488457 65.6936804625
144 8 2 122.580046735 101.784539877 65.6670916166
145 9 1 102.581745661 121.588112549 29.3549433641
146 9 1 100.086819717 118.385030132 33.1010878654
147 9 2 102.486261851 122.131327152 29.4113554663
148 9 2 102.082678298 123.078787167 29.5248889291
149 9 2 101.419810758 123.864206364 29.6559359424
150 9 2 100.558117557 124.417997593 29.8116604227
151 9 2 99.5761794483 124.69168597 29.9969770017
152 9 2 98.5635371884 124.662327241 30.2141030702
153 9 2 97.612530134 124.334599085 30.4623566691
154 9 2 96.8098797578 123.740374756 30.7382186482
155 9 2 96.2287852181 122.935817922 31.035653427
156 9 2 95.9222514505 121.996263497 31.3466591222
157 9 2 95.9182579103 121.009351064 31.6619968975
158 9 2 96.2172083196 120.067036763 31.9720330595
159 9 2 96.7918938691 119.257211732 32.2676171422
160 9 2 97.5899732287 118.655691068 32.5409159482
161 9 2 98.5387433193 118.319303479 32.7861275236
162 9 2 99.5517660047 118.280711505 33.0000099905
163 10 1 97.7742106759 56.7273925737 120.834245156
164 10 1 96.9383385818 56.5873118237 126.293154047
165 10 2 97.8734719082 56.2345932583 120.600412672
166 10 2 98.2181911048 55.2941482078 120.335494205
167 10 2 98.7314815393 54.3942440223 120.323028335
168 10 2 99.3546316491 53.6054656777 120.573951978
169 10 2 100.018916456 52.9882693266 121.075194804
170 10 2 100.651861664 52.5874718813 121.790870557
171 10 2 101.183849497 52.4281660726 122.665547992
172 10 2 101.554464175 52.5134333137 123.629303288
173 10 2 101.71799865 52.8240628382 124.604093411
174 10 2 101.647620679 53.3203027099 125.510869537
175 10 2 101.337818516 53.9454831054 126.276782132
176 10 2 100.804903287 54.6311816173 126.841820999
177 10 2 100.085522281 55.3034597737 127.164285043
178 10 2 99.2333186417 55.8896023321 127.224583216
179 10 2 98.314041942 56.3247450797 127.027020189
180 10 2 97.3995552846 56.5577870326 126.599403991
181 11 1 37.8973002117 115.476713835 66.0337073266
182 11 1 36.4608715508 110.346856728 64.57109671
183 11 2 38.0271158201 115.812196846 65.6118298026
184 11 2 38.409001267 116.260679733 64.7594938263
185 11 2 38.9298942871 116.437480755 63.8815064279
186 11 2 39.5294946659 116.321179067 63.0446054097
187 11 2 40.140328224 115.917069356 62.31178366
188 11 2 40.6938969075 115.256679239 61.7365475202
189 11 2 41.1269222027 114.394895606 61.3580398245
190 11 2 41.3871128038 113.404961831 61.1974721352
191 11 2 41.4379308252 112.371801828 61.2561913653
192 11 2 41.2619221325 111.384279467 61.5155570116
193 11 2 40.8623072398 110.52709887 61.9386401862
194 11 2 40.262687769 109.873083854 62.4735895858
195 11 2 39.5048952245 109.476540237 63.0583576001
196 11 2 38.6451781636 109.368306007 63.6263557849
197 11 2 37.749075291 109.552940523 64.1125242214
198 11 2 36.8854417809 110.008308938 64.4592615534
199 12 1 104.531542222 60.8403377315 45.6736703063
200 12 1 101.35550886 56.4788956309 46.8605257949
201 12 2 105.066405455 60.7832699687 45.8080063796
202 12 2 105.978900517 60.6112912731 46.267599787
203 12 2 106.70807254 60.3529247081 46.9568057725
204 12 2 107.19063835 60.0132884835 47.8084086643
205 12 2 107.385792271 59.6049083219 48.7403907466
206 12 2 107.278925453 59.1465757716 49.6634079554
207 12 2 106.882957429 58.6616354077 50.4889333507
208 12 2 106.237158533 58.1758570365 51.1373261108
209 12 2 105.403570517 57.7150868463 51.5450905804
210 12 2 104.461351608 57.3028915968 51.6706637296
211 12 2 103.49956145 56.9584105713 51.4982035132
212 12 2 102.609043553 56.6946110828 51.0390328306
213 12 2 101.874145151 56.5171065379 50.330607474
214 12 2 101.365029176 56.4236447895 49.4331021328
215 12 2 101.131279098 56.4043134145 48.4239256319
216 12 2 101.197379519 56.4424432042 47.3906653236
217 13 1 19.1918263316 17.0199322996 2.4253699837
218 13 1 17.7472683997 13.1296474413 6.07186517285
219 13 2 19.1600507022 17.5402890897 2.61405148352
220 13 2 18.8847056002 18.4470524658 3.03287754031
221 13 2 18.3568092697 19.1942532405 3.51915572994
222 13 2 17.6305975082 19.7117511463 4.04666156511
223 13 2 16.7783820345 19.950342718 4.58541276878
224 13 2 15.8839594691 19.8862460574 5.10440207865
225 13 2 15.034973496 19.5232684898 5.5744234762
226 13 2 14.3149263755 18.8924595361 5.97073423726
227 13 2 13.7955679358 18.0492808324 6.27531016516
228 13 2 13.5303557684 17.0685509497 6.47848844806
229 13 2 13.5495827113 16.0376258815 6.5798483985
230 13 2 13.857615738 15.0484367782 6.58824979784
231 13 2 14.4324979191 14.1891106685 6.52102535094
232 13 2 15.2279497382 13.5359379165 6.40240085641
233 13 2 16.1775873459 13.1464185586 6.26128708982
234 13 2 17.2009732701 13.0540213291 6.12864466379
235 14 1 113.644182546 38.3897816944 119.623017131
236 14 1 109.236353637 41.1550426124 117.767655327
237 14 2 114.125079217 38.5304245155 119.385657536
238 14 2 114.903894269 38.7606703374 118.742319376
239 14 2 115.463194534 38.9462518609 117.890149955
240 14 2 115.749979492 39.0892615001 116.904882153
241 14 2 115.736087665 39.1956719823 115.874380412
242 14 2 115.420763458 39.2747919506 114.890632128
243 14 2 114.830726035 39.3384175051 114.041363243
244 14 2 114.017733933 39.3997570206 113.402042262
245 14 2 113.053867414 39.472227238 113.029001498
246 14 2 112.024958537 39.5682303646 112.954302537
247 14 2 111.022767802 39.6980236459 113.182813904
248 14 2 110.136620418 39.8687844451 113.691767315
249 14 2 109.445264555 40.0839560457 114.432832943
250 14 2 109.009693656 40.3429338053 115.336524552
251 14 2 108.867587049 40.6411202671 116.318532982
252 14 2 109.029875573 40.9703442061 117.287410706
253 15 1 78.292370463 61.6626031829 61.6993171034
254 15 1 74.032433321 63.5719288527 58.745437943
255 15 2 78.5519262466 61.225023078 61.4790081497
256 15 2 78.8191202743 60.3200063966 61.0512206216
257 15 2 78.7822934895 59.3781359472 60.6211347515
258 15 2 78.4444268711 58.4895279081 60.209222246
259 15 2 77.835940374 57.7394437314 59.8342983579
260 15 2 77.0119202319 57.2005187892 59.5118069266
261 15 2 76.0470979941 56.9261418537 59.2524127132
262 15 2 75.0290389446 56.9455888537 59.0610293359
263 15 2 74.0501607605 57.2613544514 58.9363714071
264 15 2 73.1993098877 57.8489246606 58.8710716928
265 15 2 72.553663425 58.6590112316 58.8523526164
266 15 2 72.1716946374 59.6220441428 58.8631909008
267 15 2 72.0878432749 60.6545127226 58.8838691944
268 15 2 72.3093764808 61.6665774238 58.8937732549
269 15 2 72.8157264113 62.5702584582 58.8732708827
270 15 2 73.5603649392 63.287454919 58.8055013434
271 16 1 35.6074871267 28.9273027617 28.5539770422
272 16 1 32.8451589935 24.1444100367 28.4468718291
273 16 2 35.3752039628 29.3243217944 28.8634960359
274 16 2 34.7479347877 30.011450645 29.3193878387
275 16 2 33.9150917524 30.5639126351 29.592532927
276 16 2 32.945925257 30.9212597634 29.672965167
277 16 2 31.9221112205 31.0408282266 29.5682836861
278 16 2 30.9303065393 30.9016271112 29.3029602328
279 16 2 30.0542505425 30.5062516591 28.9161086416
280 16 2 29.3671323761 29.8806467185 28.4579197123
281 16 2 28.9249200079 29.07174194 27.9850864523
282 16 2 28.7612588965 28.1431742644 27.5556366605
283 16 2 28.8844052983 27.1694875859 27.2236438488
284 16 2 29.2764737313 26.2293382752 27.0342985857
285 16 2 29.8950671889 25.3983258615 27.0197894969
286 16 2 30.6771415143 24.7421023376 27.1963693583
287 16 2 31.5447517063 24.3103881561 27.5628736985
288 16 2 32.4121563982 24.1324403431 28.1008269376
289 17 1 87.9425413297 76.4549499794 124.395982666
290 17 1 85.4523211531 74.6620503262 119.802258103
291 17 2 88.49135104 76.5211877037 124.353532062
292 17 2 89.5096178535 76.426467561 124.187367077
293 17 2 90.4381147542 76.0621321655 123.90700439
294 17 2 91.1939300491 75.4683651718 123.520178837
295 17 2 91.7098915123 74.7062623116 123.04432906
296 17 2 91.9406889536 73.8522626809 122.505008021
297 17 2 91.8670041211 72.9911815207 121.933553918
298 17 2 91.4972715082 72.2084795345 121.364233791
299 17 2 90.8669095726 71.5824733735 120.831120175
300 17 2 90.0350924378 71.1771972834 120.364985477
301 17 2 89.0793563305 71.0365665538 119.990497157
302 17 2 88.0885323605 71.1803747569 119.723969349
303 17 2 87.1546498023 71.6024896167 119.571875878
304 17 2 86.3645478732 72.2714119491 119.530260184
305 17 2 85.7919605702 73.1331467286 119.585095953
306 17 2 85.4907960137 74.1161245904 119.713565577
307 18 1 43.842120717 66.8451461052 59.2283698904
308 18 1 43.8729166647 63.6174779466 54.7451566534
309 18 2 44.207909386 67.261666752 59.218841591
310 18 2 45.0434774073 67.869710417 59.1442829273
311 18 2 46.0082930823 68.2128296986 58.9866444703
312 18 2 47.0136780841 68.2651663667 58.741875431
313 18 2 47.9672563001 68.0273662491 58.4138667405
314 18 2 48.781373668 67.5265203664 58.0140964011
315 18 2 49.3810876089 66.8136956574 57.5605832982
316 18 2 49.710997843 65.9592803644 57.0762448259
317 18 2 49.7402959777 65.0465683332 56.5868080286
318 18 2 49.4655736095 64.1641670012 56.1184646494
319 18 2 48.9111329911 63.3979210667 55.6954838227
320 18 2 48.1267719464 62.8230879739 55.3380000074
321 18 2 47.1832449313 62.4974783983 55.060177785
322 18 2 46.1658139547 62.4561869577 54.8689207956
323 18 2 45.166477174 62.7083934318 54.7632424898
324 18 2 44.275583509 63.23652605 54.7343560497
325 19 1 110.547903665 24.5900440442 38.6854320373
326 19 1 105.785920596 23.5999052795 41.3048085926
327 19 2 110.853714346 24.9981168144 38.9030050817
328 19 2 111.223756775 25.8816224001 39.2978930298
329 19 2 111.300778963 26.8486228924 39.6617991188
330 19 2 111.075007278 27.8083017811 39.9803797018
331 19 2 110.56426694 28.6705099006 40.2434224308
332 19 2 109.812357302 29.3539822855 40.4457770844
333 19 2 108.885059651 29.7937452546 40.5878249975
334 19 2 107.864141426 29.947038589 40.6754443029
335 19 2 106.839903329 29.797213011 40.7194741555
336 19 2 105.90294866 29.3552477217 40.7347267726
337 19 2 105.135925068 28.6587496761 40.7386373394
338 19 2 104.605991438 27.7685258097 40.7496748386
339 19 2 104.358696539 26.7630406486 40.7856586523
340 19 2 104.413827375 25.731264478 40.8621343725
341 19 2 104.763605652 24.7645639382 40.9909568622
342 19 2 105.373396752 23.9483741998 41.1792097163
343 20 1 8.17725793662 48.1656447733 80.8563875413
344 20 1 3.38156259899 45.7530668297 82.1597543187
345 20 2 8.30287367835 48.6136712052 81.1578416668
346 20 2 8.31960497851 49.5178310558 81.663474972
347 20 2 8.04726186346 50.4317656367 82.0684475893
348 20 2 7.50442560258 51.2670220424 82.3532730477
349 20 2 6.73433219251 51.9423186729 82.5094159687
350 20 2 5.80093151165 52.3909538341 82.5400700432
351 20 2 4.78305845964 52.566885419 82.4598669348
352 20 2 3.76724736698 52.4489275228 82.2935426433
353 20 2 2.83984462209 52.0426814814 82.0736828841
354 20 2 2.07913842877 51.3800253243 81.8377529873
355 20 2 1.54822304571 50.5162081783 81.6246830332
356 20 2 1.2892479134 49.5248144561 81.4713194792
357 20 2 1.31957584532 48.4910568348 81.4090667042
358 20 2 1.63020045388 47.5040093473 81.461024583
359 20 2 2.18656705857 46.6484885229 81.6398829945
360 20 2 2.93172225277 45.997322587 81.9467651733
361 21 1 71.9484031129 58.3910354034 53.3646832711
362 21 1 68.3522210269 54.8405844813 51.1331448522
363 21 2 71.7314507719 58.7407121693 53.7362198497
364 21 2 71.167470787 59.4333495101 54.2612247086
365 21 2 70.4327211118 60.1116197081 54.5324118475
366 21 2 69.5815863321 60.7023958953 54.5341709951
367 21 2 68.679059225 61.1405260487 54.2754495215
368 21 2 67.7948168409 61.3747714232 53.7889369093
369 21 2 66.9968696266 61.3724768266 53.1280851944
370 21 2 66.3453624546 61.1225470527 52.362236956
371 21 2 65.8870925792 60.6364581799 51.570304926
372 21 2 65.6512441915 59.9472115573 50.8335793037
373 21 2 65.6467283584 59.1063258198 50.2283183725
374 21 2 65.861370803 58.1791411024 49.8187977601
375 21 2 66.2630215567 57.2388634614 49.6514518875
376 21 2 66.8024853438 56.3598923382 49.7506415954
377 21 2 67.4180055987 55.6110392489 50.1164337188
378 21 2 68.0408934122 55.0492557985 50.724594995
379 22 1 9.14337469752 87.8781930255 111.355790813
380 22 1 6.7825154409 92.2890967351 113.69849504
381 22 2 9.69740059736 87.8716352593 111.375637375
382 22 2 10.7116796403 88.0772553875 111.326561953
383 22 2 11.6200987845 88.5547977148 111.184512683
384 22 2 12.3432202116 89.2680143068 110.979897176
385 22 2 12.8184954949 90.1591761501 110.74882579
386 22 2 13.0059667212 91.154334997 110.529820265
387 22 2 12.891908548 92.1700635511 110.360302571
388 22 2 12.4900792315 93.121059642 110.273183992
389 22 2 11.8404665987 93.9279212903 110.293865356
390 22 2 11.0056432632 94.524383986 110.437921811
391 22 2 10.0650632996 94.8633605211 110.709683199
392 22 2 9.10782021611 94.9212328629 111.101839395
393 22 2 8.22452632006 94.7000048748 111.596106612
394 22 2 7.49905364782 94.2271196692 112.164893915
395 22 2 7.00088925309 93.5529582412 112.773818061
396 22 2 6.77880164761 92.7462473756 113.384837444
397 23 1 45.6433664965 112.312697165 30.3524455467
398 23 1 42.503548885 109.029740792 33.495968074
399 23 2 45.5961336147 112.854424917 30.4605273933
400 23 2 45.2774691765 113.823048326 30.644025839
401 23 2 44.6845301079 114.65729088 30.8049998505
402 23 2 43.8697733627 115.281145048 30.9479244259
403 23 2 42.9058739829 115.637779637 31.0789197213
404 23 2 41.8791009634 115.694719802 31.2051932146
405 23 2 40.881454063 115.446807048 31.3343827633
406 23 2 40.0022782727 114.916669405 31.4738604344
407 23 2 39.3201202584 114.15265895 31.6300605599
408 23 2 38.8955690425 113.22444464 31.807893265
409 23 2 38.765733476 112.216662175 32.0102969228
410 23 2 38.9408598663 111.221199681 32.2379703299
411 23 2 39.4033980534 110.328822348 32.4893090127
412 23 2 40.1096010604 109.620899434 32.7605514712
413 23 2 40.9935125132 109.161987665 33.0461220291
414 23 2 41.9729783879 108.993947071 33.3391390424
415 24 1 119.990750622 83.8906521163 24.640840145
416 24 1 115.446002271 82.4204101882 21.8656568793
417 24 2 119.939699106 84.3510206021 24.9455304601
418 24 2 119.758946843 85.3018468821 25.3152709309
419 24 2 119.467036246 86.2921245847 25.402381702
420 24 2 119.072687819 87.2298128244 25.2057091469
421 24 2 118.593958998 88.027664105 24.7499657307
422 24 2 118.056598268 88.6111766951 24.0834775353
423 24 2 117.491698256 88.9253852622 23.2737794656
424 24 2 116.93286172 88.9398708156 22.401459624
425 24 2 116.413138749 88.6515333164 21.5528139199
426 24 2 115.962014335 88.0848742373 20.8119804286
427 24 2 115.602720894 87.2897633193 20.25327043
428 24 2 115.350120695 86.336893078 19.9343951347
429 24 2 115.209351204 85.3113353694 19.891205461
430 24 2 115.175356815 84.3047873181 20.1344243196
431 24 2 115.233349659 83.4072133692 20.648669249
432 24 2 115.360157474 82.6986452695 21.3938544859
433 25 1 20.8876670156 122.019931249 17.9212292389
434 25 1 17.5288593265 118.968207865 21.0713699272
435 25 2 20.8979795611 122.5600656 18.045849153
436 25 2 20.6831952292 123.549330815 18.2664665516
437 25 2 20.1815410973 124.432793148 18.4696596845
438 25 2 19.4377256721 125.12952291 18.65609
439 25 2 18.5185298147 125.575610588 18.8279468323
440 25 2 17.5067198442 125.729992023 18.9887478497
441 25 2 16.4935036083 125.578191302 19.1430184286
442 25 2 15.570217132 125.133640196 19.2958791772
443 25 2 14.8199995834 124.436453893 19.4525792061
444 25 2 14.3102153599 123.549774601 19.6180176857
445 25 2 14.0863140045 122.554016311 19.7962973001
446 25 2 14.1676876005 121.53953527 19.9903502981
447 25 2 14.5459032354 120.598394255 20.2016712268
448 25 2 15.1854716383 119.815971296 20.4301807078
449 25 2 16.0270819319 119.263177696 20.6742326717
450 25 2 16.9930076608 118.989994657 20.9307643935
451 26 1 14.0265014692 67.6898915063 74.878521408
452 26 1 8.51070334169 67.9962664241 74.888344219
453 26 2 14.2868413933 68.1607533807 75.0122891443
454 26 2 14.6315915961 69.1339038418 75.0993264287
455 26 2 14.7553969507 70.1556007119 74.9799206041
456 26 2 14.6355866216 71.139678212 74.6787778307
457 26 2 14.2716946916 72.0033994681 74.2371691054
458 26 2 13.6855026291 72.6749977562 73.7091685216
459 26 2 12.9190539655 73.1002178472 73.1567245594
460 26 2 12.0308221394 73.2472612264 72.6440136477
461 26 2 11.0903807994 73.1096844427 72.231590654
462 26 2 10.1720623516 72.7069864121 71.97086947
463 26 2 9.34818275971 72.0828311438 71.899436773
464 26 2 8.68245013799 71.3010678821 72.0376261007
465 26 2 8.22415792718 70.4399114189 72.3866645035
466 26 2 8.00369192897 69.5848130241 72.928560702
467 26 2 8.02976072143 68.8206717908 73.6277449444
468 26 2 8.28860189538 68.2240963099 74.4343110939
469 27 1 93.630112613 91.5097776908 59.7923780908
470 27 1 95.1684257437 95.9612681516 56.9051966883
471 27 2 93.4998175638 91.0663267861 59.4861819391
472 27 2 93.1207756976 90.3909418531 58.7979723292
473 27 2 92.6075485154 89.9692425045 58.0028512504
474 27 2 92.0199810671 89.8406547045 57.1592401537
475 27 2 91.424694319 90.0178880833 56.3299802256
476 27 2 90.8890128313 90.4857774878 55.5766045822
477 27 2 90.4748283037 91.202665245 54.9537296896
478 27 2 90.2329583131 92.1041981477 54.5040772193
479 27 2 90.1985144264 93.1091930773 54.2545800821
480 27 2 90.3877018759 94.1270366276 54.2139275651
481 27 2 90.7963424953 95.0659442754 54.3717733264
482 27 2 91.4002555483 95.8413262936 54.6996784366
483 27 2 92.1574617382 96.3834978797 55.1537035113
484 27 2 93.0120095086 96.6440307382 55.6784136683
485 27 2 93.8990748783 96.6001671913 56.2119312691
486 27 2 94.7508699737 96.2568944798 56.6915759003
487 28 1 14.4989207855 97.0045874762 45.583821556
488 28 1 15.1349803015 94.6190454487 50.5257451277
489 28 2 14.1945847641 97.4680074718 45.5855770417
490 28 2 13.4727269899 98.2010620075 45.7080613782
491 28 2 12.6150968539 98.7099653183 45.9890204168
492 28 2 11.7054241488 98.9565849932 46.419281171
493 28 2 10.832182208 98.9266950735 46.9760622022
494 28 2 10.0805237983 98.631272711 47.6250500866
495 28 2 9.52451967259 98.10549763 48.3235269922
496 28 2 9.22040721869 97.4055455895 49.024264295
497 28 2 9.20146457176 96.6034681126 49.6798273417
498 28 2 9.47497740128 95.780625183 50.246898992
499 28 2 10.0215748417 95.0202695002 50.6902278597
500 28 2 10.7969950951 94.3999582178 50.9858413823
501 28 2 11.7361197757 93.9844838169 51.1232308566
502 28 2 12.7589092767 93.8199684441 51.1063092781
503 28 2 13.7776981668 93.9296600015 50.9530546827
504 28 2 14.7051856592 94.3118131623 50.6938714962
505 29 1 15.802013985 34.0887590793 105.876721587
506 29 1 16.6420966354 39.3783477294 104.52302143
507 29 2 15.2763126849 33.9586871883 105.995469363
508 29 2 14.3078637911 33.9026541867 106.359360904
509 29 2 13.4271139149 34.1023421313 106.867154555
510 29 2 12.704716376 34.5500888426 107.459703869
511 29 2 12.196891102 35.2156222475 108.070137149
512 29 2 11.9403003318 36.0488195979 108.629952621
513 29 2 11.9487069509 36.9842760253 109.07526219
514 29 2 12.211720041 37.9472660193 109.352614668
515 29 2 12.6957419845 38.860554459 109.423867706
516 29 2 13.3470307976 39.6514363868 109.269664368
517 29 2 14.0965985681 40.258363872 108.891197466
518 29 2 14.86649952 40.6365559393 108.310100834
519 29 2 15.5769345616 40.7620802356 107.566477466
520 29 2 16.1535247605 40.6340343996 106.715244232
521 29 2 16.5340907836 40.2746283101 105.821126356
522 29 2 16.6743203777 39.7271597144 104.952757881
523 30 1 98.7418574103 75.504089768 7.20727696678
524 30 1 96.5134224302 71.4224188108 10.1892278044
525 30 2 98.5448683641 76.0099754761 7.31977831808
526 30 2 97.9678057675 76.8509140092 7.50218214059
527 30 2 97.1645107852 77.4883518738 7.64996627781
528 30 2 96.2060192089 77.8633700849 7.76873180649
529 30 2 95.1775125854 77.9409685073 7.86672477199
530 30 2 94.1705541454 77.7132560245 7.95408458327
531 30 2 93.2747430608 77.2001697933 8.04191983291
532 30 2 92.5695477187 76.4476580245 8.14129577852
533 30 2 92.117062391 75.5234919271 8.26222577414
534 30 2 91.9563475071 74.5110885432 8.41275857975
535 30 2 92.0998694004 73.5019075078 8.59824473833
536 30 2 92.532364035 72.5871147473 8.82084888814
537 30 2 93.2122282822 71.8492729492 9.07935246177
538 30 2 94.0753119342 71.3548161938 9.36926475526
539 30 2 95.0407648241 71.1479946652 9.68323224381
540 30 2 96.0184061027 71.2468413654 10.0117088358
541 31 1 99.1289892222 99.0417377843 65.0170032234
542 31 1 98.8808262745 97.8657134596 70.4089762389
543 31 2 98.9321659165 99.5409177721 64.8774986924
544 31 2 98.3780569179 100.406047992 64.7434728327
545 31 2 97.6321214055 101.123121345 64.7967272164
546 31 2 96.7683607144 101.637587767 65.047110482
547 31 2 95.8715156294 101.913364277 65.4865034969
548 31 2 95.0293424897 101.936123839 66.0895593951
549 31 2 94.3246144328 101.714601236 66.8160138764
550 31 2 93.8275768441 101.279796918 67.6143551893
551 31 2 93.5895446781 100.682151394 68.4265192901
552 31 2 93.638225237 99.9869477119 69.1931822244
553 31 2 93.9751927249 99.2683610864 69.8591673481
554 31 2 94.5757447624 98.6026980243 70.3784745301
555 31 2 95.3911539431 98.0614411913 70.7184729416
556 31 2 96.3531092063 97.7047339576 70.8628752692
557 31 2 97.3799422075 97.575898491 70.8132222596
558 31 2 98.3840711698 97.6974870565 70.588742285
559 32 1 90.527258752 38.07687084 71.2137793951
560 32 1 89.7394847756 38.3791600705 65.754290001
561 32 2 90.129203701 37.810276836 71.4928159545
562 32 2 89.2424975879 37.4557115212 71.8946688103
563 32 2 88.2382433161 37.3036475204 72.0991190693
564 32 2 87.2036471261 37.3536505545 72.0754456374
565 32 2 86.2286808431 37.5868684745 71.8137202852
566 32 2 85.3978811857 37.967749584 71.3257125795
567 32 2 84.7826444698 38.4472830816 70.6438171188
568 32 2 84.4347190255 38.9674662645 69.8181008524
569 32 2 84.3814884748 39.4665913196 68.9117396115
570 32 2 84.6234757878 39.8848698261 67.9952598013
571 32 2 85.1342956156 40.1698823097 67.1401101074
572 32 2 85.8630592438 40.281356138 66.4121491394
573 32 2 86.7390129632 40.1948362634 65.8656425942
574 32 2 87.6779870813 39.903914235 65.5383170834
575 32 2 88.5900677647 39.4208123118 65.447921453
576 32 2 89.3877924445 38.7752694366 65.5906090234
577 33 1 108.861259858 23.4762989863 107.508174288
578 33 1 105.465216797 19.1778314665 108.220957263
579 33 2 109.394532905 23.3431443919 107.435570578
580 33 2 110.357350426 22.9648742601 107.493399126
581 33 2 111.198019176 22.4359007038 107.788209303
582 33 2 111.838543813 21.7885947333 108.282348131
583 33 2 112.219171596 21.0661130421 108.919994356
584 33 2 112.303838686 20.3184643898 109.632246409
585 33 2 112.083457272 19.597951437 110.343402601
586 33 2 111.576743899 18.9544034981 110.977861124
587 33 2 110.828513502 18.4306347321 111.467010962
588 33 2 109.905594649 18.0585417464 111.755485594
589 33 2 108.890738296 17.8561963067 111.806209509
590 33 2 107.875075252 17.8261981433 111.603777538
591 33 2 106.949809857 17.955437993 111.155858995
592 33 2 106.197906946 18.2162924734 110.492498638
593 33 2 105.686529827 18.5691418801 109.66337817
594 33 2 105.460918524 18.9659814174 108.733287888