LAMMPS input file for bananas

4320 atoms

2 atom types

0 126.992084157 xlo xhi
0 126.992084157 ylo yhi
0 126.992084157 zlo zhi

Masses

 1 1
 2 1

Atoms

1 1 1 8.12538982054 67.1361620602 79.5002174406
2 1 1 6.15425562856 62.7854859795 76.7245664001
3 1 2 7.74672389045 67.5176640942 79.6360478476
4 1 2 6.98172835834 68.2159097643 79.6622171296
5 1 2 6.19104767206 68.8298445901 79.395087773
6 1 2 5.43161214903 69.2925573005 78.8634820496
7 1 2 4.75750419357 69.5509201161 78.1203285452
8 1 2 4.21502883026 69.5704312041 77.2378378604
9 1 2 3.83849312474 69.3383594282 76.3009208072
10 1 2 3.64707918635 68.8649047579 75.3994490159
11 1 2 3.64309577014 68.1822685682 74.6200633757
12 1 2 3.81176784005 67.3417185707 74.0382769496
13 1 2 4.12258327389 66.4089158983 73.7115921601
14 1 2 4.53207396178 65.4579302688 73.6742595976
15 1 2 4.98777780818 64.5644887279 73.9341561704
16 1 2 5.43302051165 63.7990733314 74.4720671453
17 1 2 5.81208127598 63.2204968942 75.2434375197
18 1 2 6.07527161182 62.8705423595 76.1824330905
19 2 1 113.543606697 44.1291010154 81.1589965713
20 2 1 109.096191343 42.8163195015 78.1564822206
21 2 2 113.988474138 44.2792649203 80.8641655192
22 2 2 114.775951993 44.3607973027 80.1958234587
23 2 2 115.436640449 44.1863652648 79.4170332172
24 2 2 115.902323209 43.7819767835 78.5845312447
25 2 2 116.122558227 43.1945997511 77.7599496721
26 2 2 116.06927536 42.4878809769 77.0041987068
27 2 2 115.739334891 41.7363449511 76.3719148306
28 2 2 115.154813703 41.0186011369 75.9064808299
29 2 2 114.360993031 40.4101789272 75.636071571
30 2 2 113.4222312 39.9766433433 75.5710859361
31 2 2 112.416097532 39.7676189577 75.7031989933
32 2 2 111.426302114 39.8122667474 76.0061207917
33 2 2 110.535065843 40.1166261486 76.4379926201
34 2 2 109.815626216 40.6630645783 76.9452023167
35 2 2 109.325561922 41.4118845968 77.4672708744
36 2 2 109.101544704 42.3049422239 77.9423649406
37 3 1 44.8706847219 80.5928537383 13.7677227106
38 3 1 42.2876807213 76.9464663847 17.0157899299
39 3 2 44.8606038338 81.1163257085 13.9500878942
40 3 2 44.6108538967 82.0546572684 14.3114863776
41 3 2 44.08371302 82.8639164122 14.6865492328
42 3 2 43.32929341 83.4679097936 15.0600369282
43 3 2 42.4184231223 83.8091534915 15.416853504
44 3 2 41.4361902733 83.8541125164 15.7434225281
45 3 2 40.4741874862 83.5962574348 16.0289245522
46 3 2 39.6221634682 83.0566595098 16.2662832751
47 3 2 38.9598426558 82.2820701113 16.4528105288
48 3 2 38.5496585449 81.3406594544 16.5904512979
49 3 2 38.4310630454 80.3158030656 16.6856064396
50 3 2 38.6169305444 79.298482327 16.7485492622
51 3 2 39.0923844404 78.3789917664 16.7924891409
52 3 2 39.816153106 77.6387089523 16.8323675185
53 3 2 40.7243316862 77.1426771461 16.8834960327
54 3 2 41.7362068549 76.9336767825 16.9601609014
55 4 1 12.1742756412 44.5701908012 120.919926525
56 4 1 11.250631563 42.1200026888 125.784230267
57 4 2 11.7780985856 44.9219796731 120.756617253
58 4 2 10.8948958266 45.39880861 120.499640479
59 4 2 9.89333628693 45.6103904147 120.3397604
60 4 2 8.8597646283 45.5457279035 120.308162975
61 4 2 7.88344333153 45.2190028236 120.424341539
62 4 2 7.04841665996 44.6682832249 120.694320043
63 4 2 6.42585024948 43.9520536591 121.110103983
64 4 2 6.06754455106 43.143884469 121.65040908
65 4 2 6.00121335805 42.3257260484 122.282601284
66 4 2 6.22795776802 41.5804392827 122.965671281
67 4 2 6.72216582065 40.984243001 123.653972382
68 4 2 7.43384695946 40.5997668329 124.301381097
69 4 2 8.29318853742 40.4703426857 124.865501167
70 4 2 9.21691905313 40.6160551567 125.311527872
71 4 2 10.1158981256 41.0319108758 125.615420384
72 4 2 10.9032414018 41.6882936379 125.76609303
73 5 1 120.943742719 102.485555713 14.7354563763
74 5 1 117.518824038 100.418998909 10.9253033521
75 5 2 120.987594694 102.183707065 15.1984315222
76 5 2 120.834470246 101.626929212 16.058664826
77 5 2 120.388682467 101.109205408 16.8375649039
78 5 2 119.690409026 100.659822454 17.4571770185
79 5 2 118.802840982 100.301838062 17.8540651044
80 5 2 117.806423091 100.049979212 17.9850937963
81 5 2 116.791521484 99.9092998227 17.8313601021
82 5 2 115.850187032 99.8747201038 17.3999163598
83 5 2 115.067765155 99.9314895626 16.7231274364
84 5 2 114.515116819 100.056531473 15.8557207561
85 5 2 114.242159745 100.220546258 14.8697980424
86 5 2 114.273318543 100.390682066 13.8482634384
87 5 2 114.605298473 100.533529132 12.8772670157
88 5 2 115.207385754 100.618164986 12.0383524259
89 5 2 116.024247043 100.618972955 11.4010244145
90 5 2 116.980972917 100.517977053 11.0164136491
91 6 1 56.7036862296 109.703556249 35.6201932945
92 6 1 52.6848782354 111.356826705 32.209347334
93 6 2 56.6787399093 109.916891604 36.131316856
94 6 2 56.6125786529 110.519758416 36.971331324
95 6 2 56.5104412157 111.338871586 37.5974875113
96 6 2 56.3627045279 112.299655122 37.9559828079
97 6 2 56.1639017694 113.314620161 38.0174111791
98 6 2 55.9132206561 114.291339337 37.7794434459
99 6 2 55.6145774772 115.140871294 37.2670395844
100 6 2 55.276260136 115.78586745 36.5301736902
101 6 2 54.9101727297 116.167622116 35.6392789731
102 6 2 54.5307505225 116.25142336 34.6788279585
103 6 2 54.1536442104 116.029716909 33.7396330426
104 6 2 53.7942934016 115.5227947 32.9105691847
105 6 2 53.4665193374 114.776945321 32.2704731927
106 6 2 53.1812651237 113.860234938 31.8809579585
107 6 2 52.9455982952 112.856303237 31.7807966079
108 6 2 52.7620666293 111.856739895 31.9823884333
109 7 1 79.4247902912 65.2458510816 46.7185480593
110 7 1 75.1889521924 67.6248927906 49.3483440987
111 7 2 79.6150918856 64.7815792944 46.9543840168
112 7 2 79.974800198 64.0463045133 47.5895461515
113 7 2 80.2972073937 63.5345348739 48.4307330793
114 7 2 80.5366607688 63.2846521458 49.4072937352
115 7 2 80.6550686383 63.3111678068 50.4362381007
116 7 2 80.6253722918 63.6034003604 51.4298015223
117 7 2 80.434012322 64.1264489253 52.303444225
118 7 2 80.082164529 64.8243743577 52.9835568866
119 7 2 79.5856327491 65.6252979549 53.4141699312
120 7 2 78.973408377 66.4479530066 53.5620550058
121 7 2 78.2850278783 67.2090920386 53.4197536564
122 7 2 77.5669691457 67.8310745976 53.006257146
123 7 2 76.8684151638 68.2489439705 52.3652754514
124 7 2 76.2367711113 68.4163478159 51.5612532163
125 7 2 75.7133435055 68.3097630558 50.6734957936
126 7 2 75.329575224 67.9306399411 49.7889407748
127 8 1 114.58686839 119.721687246 4.60931556949
128 8 1 116.896804929 123.934957948 1.88341494094
129 8 2 114.179381936 119.462583381 4.33691592862
130 8 2 113.335186522 119.196616764 3.79835685805
131 8 2 112.457210164 119.234865193 3.24959043772
132 8 2 111.632135638 119.573977003 2.72261300134
133 8 2 110.941823859 120.183177633 2.24743487496
134 8 2 110.455852477 121.007074648 1.849345016
135 8 2 110.225174063 121.970706613 1.54660599232
136 8 2 110.277471913 122.986375624 1.348789398
137 8 2 110.614636796 123.961640742 1.25590342812
138 8 2 111.212594611 124.807743731 1.2583921318
139 8 2 112.023500678 125.447699142 1.33800641157
140 8 2 112.980100654 125.823311323 1.46946737983
141 8 2 114.001860585 125.900478804 1.62277046194
142 8 2 115.002307361 125.67230255 1.7659202329
143 8 2 115.896910509 125.159714791 1.86784671494
144 8 2 116.610786921 124.409571106 1.90123732286
145 9 1 17.1339610859 60.1891218795 59.876159642
146 9 1 15.6344659543 63.2827928079 64.2003596372
147 9 2 17.5468876421 60.398495263 59.5711415547
148 9 2 18.1857805672 60.9839433932 59.003236344
149 9 2 18.6109293082 61.7804437161 58.495018089
150 9 2 18.7949095504 62.7230505447 58.1063104245
151 9 2 18.7322788434 63.733500974 57.8860439143
152 9 2 18.4400726653 64.7273483366 57.8677961613
153 9 2 17.9562516851 65.6216592901 58.0667312985
154 9 2 17.3362417487 66.3425729696 58.4782178191
155 9 2 16.6478819614 66.8320332084 59.0782507258
156 9 2 15.9652413348 67.0530802024 59.8256395219
157 9 2 15.3618675942 66.9932192972 60.6657626154
158 9 2 14.9040835001 66.6655598427 61.5355459311
159 9 2 14.6449417059 66.1076203107 62.3692119436
160 9 2 14.6193891502 65.3779085867 63.1042751231
161 9 2 14.8410817371 64.5505891323 63.6872373248
162 9 2 15.3011396364 63.708723093 64.0784640011
163 10 1 84.56328201 48.9568899531 113.679064373
164 10 1 89.1781308033 46.7831246484 111.558709196
165 10 2 84.5918701759 49.0860264616 114.217476916
166 10 2 84.7266682318 49.1076248566 115.244517814
167 10 2 84.9712044936 48.848480824 116.217398278
168 10 2 85.3211269227 48.3389466199 117.048890431
169 10 2 85.7624778126 47.6321968954 117.664653559
170 10 2 86.2729659974 46.7993819688 118.010010074
171 10 2 86.8239986311 45.9231426652 118.054929228
172 10 2 87.38328735 45.090077825 117.796764334
173 10 2 87.91779127 44.3828510521 117.260494008
174 10 2 88.3967285753 43.8726561468 116.496445432
175 10 2 88.7943821984 43.612727981 115.575707165
176 10 2 89.0924438623 43.6334902827 114.583649615
177 10 2 89.2816828308 43.9397825936 113.612143751
178 10 2 89.3627872657 44.5104191584 112.75118731
179 10 2 89.3463015023 45.3001199494 112.080701746
180 10 2 89.2516649619 46.2436378206 111.663247601
181 11 1 58.2481404933 28.8938463872 107.608064781
182 11 1 55.4703845257 25.6024779756 111.067682798
183 11 2 58.1986177985 29.4362987041 107.711382614
184 11 2 57.8759663388 30.4012065168 107.907083814
185 11 2 57.2811637211 31.2257194563 108.106679078
186 11 2 56.4685265511 31.8350205862 108.311185739
187 11 2 55.5122264717 32.1739089513 108.521173466
188 11 2 54.4995296163 32.2118309972 108.736712345
189 11 2 53.5228425333 31.9456654449 108.957366491
190 11 2 52.6712895769 31.4000077875 109.182233773
191 11 2 52.0225894599 30.6249284763 109.410028046
192 11 2 51.6359714012 29.6914091332 109.639196377
193 11 2 51.5467765402 28.6848727655 109.868060591
194 11 2 51.7632366872 27.6973976872 110.094970233
195 11 2 52.2657240151 26.8193248266 110.318453002
196 11 2 53.0085400841 26.1310233924 110.537348946
197 11 2 53.9240811316 25.6955654349 110.750916193
198 11 2 54.9289999753 25.5529769974 110.958898563
199 12 1 109.587262075 61.6268357655 15.4227006053
200 12 1 112.531025275 57.0400109093 14.52087633
201 12 2 109.650833882 61.8499622135 15.9262428594
202 12 2 109.725434817 62.0478079374 16.9405119466
203 12 2 109.752592235 61.9435290982 17.9709673845
204 12 2 109.74857878 61.5438554316 18.9268412588
205 12 2 109.73250824 60.8824411224 19.7241635653
206 12 2 109.724593371 60.0167973154 20.2934158515
207 12 2 109.744303564 59.023050128 20.5858676375
208 12 2 109.80859026 57.9890019588 20.5780180693
209 12 2 109.930341867 57.0061285328 20.2737379587
210 12 2 110.117209025 56.1612411341 19.7039169692
211 12 2 110.370907262 55.5285739892 18.9236481055
212 12 2 110.687060632 55.1630180156 18.0072061338
213 12 2 111.055600573 55.0951176616 17.0412776348
214 12 2 111.461683625 55.3282868612 16.1170597543
215 12 2 111.887044374 55.8384978634 15.3219478265
216 12 2 112.311660295 56.5764712972 14.7315695229
217 13 1 45.1077074319 96.0634313836 76.8357560841
218 13 1 42.7196227565 97.8429909879 81.4885198068
219 13 2 45.658259464 96.1260693595 76.8170335853
220 13 2 46.6372528234 96.4639933706 76.8458324772
221 13 2 47.4772953125 97.0575451289 76.9702307806
222 13 2 48.1068218784 97.8485731762 77.1969926435
223 13 2 48.4734554317 98.7609266183 77.5235520492
224 13 2 48.5487808788 99.7073960756 77.9382467014
225 13 2 48.3309350811 100.597662585 78.421381012
226 13 2 47.8447766754 101.346529931 78.9470213008
227 13 2 47.1396202759 101.881690056 79.4853595812
228 13 2 46.2847415781 102.150313742 80.0054304789
229 13 2 45.3630630653 102.123865857 80.4779336424
230 13 2 44.4635958451 101.800706252 80.8779043922
231 13 2 43.6733265252 101.20623926 81.1869891844
232 13 2 43.0692886166 100.390598157 81.3951184873
233 13 2 42.7115411349 99.4240756465 81.5014245919
234 13 2 42.6376943815 98.3907168711 81.5143207021
235 14 1 44.9412718823 89.0102304191 55.7899637288
236 14 1 44.9804801692 93.355874526 59.2005107623
237 14 2 44.4549027377 88.9116998935 55.5427424134
238 14 2 43.4620002413 88.7424107808 55.2999753644
239 14 2 42.4346912556 88.6209633991 55.3577403424
240 14 2 41.4603637933 88.5762454509 55.7072204027
241 14 2 40.6215767427 88.6301509555 56.3130095504
242 14 2 39.9885348459 88.7955846685 57.1163399025
243 14 2 39.6126897239 89.0752858473 58.0404382231
244 14 2 39.5220501995 89.4615785749 58.9975235987
245 14 2 39.7186293673 89.9370714 59.8968084342
246 14 2 40.1782611058 90.4762425204 60.6527734989
247 14 2 40.8528027549 91.0477660277 61.1929627763
248 14 2 41.6745231904 91.6173671799 61.4645876361
249 14 2 42.5622763352 92.1509464525 61.4393383771
250 14 2 43.428897407 92.6176876189 61.1159645802
251 14 2 44.1891477559 92.9928665676 60.5203890815
252 14 2 44.7674841387 93.2601048381 59.7033451743
253 15 1 32.5801002485 59.3192928221 112.023844376
254 15 1 37.4822424018 57.9666984141 114.181964331
255 15 2 32.4172505227 59.8400486133 112.122205755
256 15 2 32.1648042171 60.7588983507 112.528944042
257 15 2 32.0138133434 61.5417294962 113.190629137
258 15 2 31.9946123389 62.1267993723 114.045482675
259 15 2 32.1255233463 62.4703907126 115.014119506
260 15 2 32.4111862 62.5507963738 116.006783435
261 15 2 32.842135517 62.370297884 116.93152826
262 15 2 33.3956634414 61.9549574871 117.702598428
263 15 2 34.0378894052 61.3522426393 118.248245415
264 15 2 34.7268482508 60.6266994772 118.517267422
265 15 2 35.4163152435 59.8540696099 118.483676275
266 15 2 36.0600193325 59.1143864737 118.149066181
267 15 2 36.615860633 58.4846804987 117.542468419
268 15 2 37.0497477188 58.0319579905 116.717705217
269 15 2 37.3387049645 57.8070936848 115.748484001
270 15 2 37.4729667119 57.8401936512 114.721679158
271 16 1 114.138763895 78.3221506092 126.576778337
272 16 1 112.40619967 79.3029584756 121.42369885
273 16 2 113.946254972 78.6746077862 126.959003193
274 16 2 113.662201649 79.4966968035 127.521971548
275 16 2 113.483827845 80.4669381691 127.838617233
276 16 2 113.409370309 81.4997260001 127.874048611
277 16 2 113.427594095 82.5037534701 127.619005979
278 16 2 113.518816608 83.3903351829 127.090705562
279 16 2 113.656701608 84.081490609 126.331270301
280 16 2 113.810659699 84.5170518027 125.403890463
281 16 2 113.948636463 84.6601475496 124.387064013
282 16 2 114.040034139 84.5005640788 123.367441734
283 16 2 114.058500523 84.0556760212 122.431929243
284 16 2 113.984330906 83.3688627584 121.659765775
285 16 2 113.806264101 82.5055545076 121.115301738
286 16 2 113.522508873 81.5472685325 120.842133343
287 16 2 113.140907203 80.5841790627 120.859128933
288 16 2 112.678219516 79.7068981533 121.158709174
289 17 1 106.429916941 85.5155964339 16.6786983099
290 17 1 105.861064471 81.1873531908 20.0640651079
291 17 2 106.700079752 85.9482157428 16.8960325618
292 17 2 107.052863731 86.728393066 17.4793993589
293 17 2 107.191778144 87.4019534415 18.2542988477
294 17 2 107.117789003 87.8987836979 19.1604640172
295 17 2 106.851267911 88.164879142 20.1256633404
296 17 2 106.430135244 88.1672659418 21.072284485
297 17 2 105.90640381 87.8970066034 21.9244084699
298 17 2 105.341438018 87.3700145999 22.6147294776
299 17 2 104.800360681 86.6256039005 23.0906895995
300 17 2 104.346117243 85.7229056074 23.3192693489
301 17 2 104.03373847 84.7354783139 23.2899972988
302 17 2 103.905324541 83.7446034353 23.0159045244
303 17 2 103.986207733 82.831876625 22.5323368558
304 17 2 104.282643451 82.0717705488 21.8937331998
305 17 2 104.78124006 81.5248469008 21.1686635789
306 17 2 105.450179504 81.232236366 20.4335791573
307 18 1 16.1844406051 6.01405853513 20.6665557182
308 18 1 14.2188645293 1.52325667474 23.2135540303
309 18 2 15.9710508798 6.49457707225 20.8424771457
310 18 2 15.3669074947 7.28300143877 21.1371766532
311 18 2 14.543877169 7.86359542425 21.3800381736
312 18 2 13.5754454244 8.18033846996 21.5678247818
313 18 2 12.5483507334 8.2012593251 21.7023194838
314 18 2 11.5546785395 7.9213501409 21.7901627003
315 18 2 10.6834679144 7.36302292261 21.8422470102
316 18 2 10.0125958857 6.57406673516 21.8727243212
317 18 2 9.60167915291 5.62329185758 21.8977159613
318 18 2 9.48664018543 4.59425791002 21.9338432626
319 18 2 9.67643298503 3.57765761767 21.9967125716
320 18 2 10.1522269527 2.66305041131 22.099492772
321 18 2 10.8691232473 1.93069932451 22.2517149766
322 18 2 11.7602471951 1.44425523267 22.4584037918
323 18 2 12.7428437374 1.24495524587 22.7196193378
324 18 2 13.725820333 1.34786405648 23.0304517691
325 19 1 31.9321334628 46.7526660292 29.6998530079
326 19 1 34.2749061392 45.6601903091 34.5820557945
327 19 2 31.7379952711 46.3092762926 29.4294875293
328 19 2 31.5894421258 45.3937944239 28.9676705499
329 19 2 31.7243741495 44.4303284817 28.6113325949
330 19 2 32.1233531224 43.4961671092 28.4073514179
331 19 2 32.7428736507 42.6659279168 28.3887178596
332 19 2 33.5193285677 42.0047562857 28.5715288206
333 19 2 34.3748065561 41.562387541 28.953520072
334 19 2 35.2241935574 41.3686137094 29.5142726337
335 19 2 35.9829306898 41.4305680555 30.2170739101
336 19 2 36.5747215652 41.7320749044 31.0122639447
337 19 2 36.9384865002 42.2351240105 31.8417617928
338 19 2 37.0339297668 42.8833350903 32.6443594442
339 19 2 36.8452124396 43.6070967344 33.3613007697
340 19 2 36.382396072 44.3299113013 33.9416369851
341 19 2 35.6805256123 44.9753674731 34.3468704972
342 19 2 34.7964351503 45.4741049428 34.5544638559
343 20 1 14.839924515 50.4342679718 10.7581722738
344 20 1 12.2367583638 46.1697469299 13.1151570709
345 20 2 14.8492469372 50.8985608864 11.0610365503
346 20 2 14.635307086 51.7274866288 11.644613336
347 20 2 14.140859685 52.4338352293 12.2191074033
348 20 2 13.4134409004 52.946261509 12.7498910042
349 20 2 12.5218216174 53.2110957899 13.2063204829
350 20 2 11.5497391578 53.1972357432 13.5645293633
351 20 2 10.5882648468 52.8989812832 13.8096037141
352 20 2 9.72750310512 52.3365541146 13.9369415141
353 20 2 9.04837867219 51.5542545786 13.952672114
354 20 2 8.61526053209 50.616423795 13.8730975624
355 20 2 8.47009485282 49.6015791411 13.7232067179
356 20 2 8.62858170526 48.5952576027 13.5343975811
357 20 2 9.07874404357 47.6822193063 13.3416154511
358 20 2 9.78201938097 46.9387218603 13.1801677545
359 20 2 10.6767746573 46.4255696776 13.0825058683
360 20 2 11.6839239279 46.1825718162 13.075267263
361 21 1 56.2880750278 77.4507423987 85.0151786001
362 21 1 54.8143100641 79.1580688441 90.0580988158
363 21 2 55.9001621428 77.1624477653 84.7435329005
364 21 2 55.1658111617 76.4996374376 84.4355375805
365 21 2 54.4646550629 75.7371305252 84.4152066965
366 21 2 53.8445705067 74.9537228272 84.6894648468
367 21 2 53.346044699 74.2301151932 85.2383856265
368 21 2 52.9984850908 73.641557857 86.017007866
369 21 2 52.8175389673 73.2509915786 86.9594337218
370 21 2 52.80366724 73.1033107623 87.9848350885
371 21 2 52.9421024359 73.2212714517 89.0048208647
372 21 2 53.2041947126 73.603417177 89.9314935654
373 21 2 53.5500232158 74.2242117089 90.6854609432
374 21 2 53.9320347576 75.0363666167 91.2030723793
375 21 2 54.299378163 75.9751514833 91.4422204672
376 21 2 54.6025392183 76.9642939091 91.3861789904
377 21 2 54.7978537597 77.9229315377 91.0451274721
378 21 2 54.8514875446 78.7729824433 90.4552233391
379 22 1 98.7461710716 69.7838969115 107.812096485
380 22 1 98.3083954757 67.5578670512 112.849073222
381 22 2 98.4506045107 70.2465284784 107.734675367
382 22 2 97.7227053025 70.9816581751 107.678132614
383 22 2 96.827445655 71.4975139952 107.754637173
384 22 2 95.8484129452 71.7558590134 107.97418857
385 22 2 94.8768302412 71.7419277257 108.333747995
386 22 2 94.0032415628 71.4657718859 108.817515278
387 22 2 93.3092590362 70.9613443145 109.398369037
388 22 2 92.8601241671 70.2834041906 110.040338716
389 22 2 92.6987612515 69.5025258984 110.701883206
390 22 2 92.841864941 68.6986663611 111.339677209
391 22 2 93.27837857 67.9538771811 111.912560216
392 22 2 93.9705019411 67.3448258553 112.385288186
393 22 2 94.857136712 66.9358077384 112.731745938
394 22 2 95.8594553463 66.7728856925 112.937327487
395 22 2 96.8880860326 66.8796915805 113.000267337
396 22 2 97.8512586863 67.2552722853 112.9318014
397 23 1 7.01306315963 56.0167003672 21.5264966006
398 23 1 3.53020221162 59.6984488324 19.3282247981
399 23 2 6.77085049848 55.5727933185 21.7537874867
400 23 2 6.18701038903 54.9045277961 22.2885789688
401 23 2 5.46788263643 54.4960984176 22.9126708927
402 23 2 4.6645999363 54.381444893 23.5569080262
403 23 2 3.8359654828 54.5677300483 24.1502989551
404 23 2 3.04309321464 55.0346869532 24.626486761
405 23 2 2.34383744292 55.7364661976 24.9297972769
406 23 2 1.78751958534 56.6058149429 25.0203136385
407 23 2 1.41043265071 57.560206838 24.8775146
408 23 2 1.23253322831 58.5093640765 24.502144991
409 23 2 1.25562249801 59.3634859765 23.9161478266
410 23 2 1.46318205763 60.0414340735 23.1606642609
411 23 2 1.8218795311 60.4781276742 22.2922836802
412 23 2 2.28460672544 60.6304757878 21.3778857324
413 23 2 2.79477341668 60.4813047546 20.4885444249
414 23 2 3.29146539751 60.0409235792 19.6930499197
415 24 1 105.255870491 106.000620965 48.0624913133
416 24 1 100.626399032 104.900232429 50.8687575425
417 24 2 105.382559306 106.538905733 48.0227290204
418 24 2 105.396239119 107.564501077 47.8763833131
419 24 2 105.11551801 108.538743383 47.6630816531
420 24 2 104.560903389 109.379326099 47.4196205069
421 24 2 103.777867325 110.016125386 47.1855452979
422 24 2 102.832701896 110.397591719 46.9995459461
423 24 2 101.806476833 110.495448489 46.8959303859
424 24 2 100.78765024 110.307269343 46.901497489
425 24 2 99.8640058671 109.856699335 47.0330944195
426 24 2 99.1146518622 109.191299745 47.2960810592
427 24 2 98.6028102704 108.378212997 47.6838414693
428 24 2 98.3700545153 107.498042802 48.1783869154
429 24 2 98.4325200928 106.637507351 48.7519954923
430 24 2 98.7794338631 105.881535177 49.3697389017
431 24 2 99.3740959941 105.305524153 49.9926660736
432 24 2 100.157225053 104.968469173 50.5813534516
433 25 1 109.556825729 15.067223395 102.250317705
434 25 1 112.969109307 16.7437105682 98.2423627891
435 25 2 109.706950349 14.5974363798 102.503585047
436 25 2 110.00601323 13.6383436846 102.756868695
437 25 2 110.321166644 12.6527032852 102.705474723
438 25 2 110.642780398 11.732306585 102.354925841
439 25 2 110.960635457 10.9629981984 101.738011926
440 25 2 111.264855384 10.4168514439 100.911801317
441 25 2 111.546806543 10.1455990537 99.9524391877
442 25 2 111.799885041 10.1759178735 98.9482071158
443 25 2 112.020118649 10.506997339 97.9914764553
444 25 2 112.206528861 11.1106133572 97.1702889332
445 25 2 112.361220085 11.9337008567 96.5603318817
446 25 2 112.489187829 12.9031905268 96.2180395401
447 25 2 112.597863375 13.9326688908 96.1754492251
448 25 2 112.696436438 14.9302546626 96.4372812144
449 25 2 112.795017545 15.8069734805 96.9805085064
450 25 2 112.903716492 16.4848676829 97.7564556698
451 26 1 83.4119682262 57.8080411334 66.5737667266
452 26 1 87.0107247856 53.7945581519 67.781614666
453 26 2 83.370506339 58.2074325149 66.9560611476
454 26 2 83.2661958526 58.7726277337 67.818107375
455 26 2 83.1508952105 59.0593034534 68.8070324505
456 26 2 83.0533719659 59.0431981478 69.838381008
457 26 2 83.0007733095 58.7276479719 70.8238308946
458 26 2 83.0161516759 58.1432826803 71.6792434985
459 26 2 83.1163635759 57.3452338068 72.3323327587
460 26 2 83.3105331702 56.4081095727 72.7292538462
461 26 2 83.599220627 55.4191945466 72.8395109762
462 26 2 83.9743710639 54.4704938895 72.6587370175
463 26 2 84.420048729 53.6503473301 72.2090915448
464 26 2 84.913889502 53.0353772346 71.5372410527
465 26 2 85.4291393239 52.683504683 70.7101054293
466 26 2 85.9370927585 52.6286701172 69.8087583874
467 26 2 86.4097094153 52.877739761 68.9210378123
468 26 2 86.8221697571 53.4098797812 68.1335395733
469 27 1 10.2366949497 43.4226682386 112.28618836
470 27 1 9.57524544995 43.6033317601 106.804597686
471 27 2 10.763261605 43.3924767846 112.457061475
472 27 2 11.7592808435 43.159366345 112.621546158
473 27 2 12.6983539969 42.7257750399 112.561627847
474 27 2 13.5037288678 42.1427680013 112.270210412
475 27 2 14.1108394999 41.4750292058 111.761298247
476 27 2 14.4731911923 40.7949657033 111.068719807
477 27 2 14.5665983674 40.1761079076 110.243044242
478 27 2 14.3913890213 39.6864074961 109.346972145
479 27 2 13.9723748283 39.3820437958 108.449620566
480 27 2 13.3565896228 39.3023031878 107.620223178
481 27 2 12.6090023908 39.4659982587 106.921819809
482 27 2 11.8065955212 39.8697530837 106.405510534
483 27 2 11.0313480661 40.4883109329 106.105798036
484 27 2 10.3627635694 41.276836355 106.037442781
485 27 2 9.8706235317 42.1750018085 106.194117644
486 27 2 9.60862701266 43.1124863564 106.548984602
487 28 1 95.5480559838 117.32396179 76.8557616756
488 28 1 96.7273840751 112.02651029 77.8873545759
489 28 2 95.648849736 117.671748349 77.2756029752
490 28 2 95.712626215 118.165411827 78.1842717503
491 28 2 95.6235679295 118.410872029 79.1869022515
492 28 2 95.4060354286 118.378501653 80.199365476
493 28 2 95.096099343 118.063996909 81.1366361946
494 28 2 94.7382526431 117.488769801 81.9205427739
495 28 2 94.3813552237 116.697996481 82.4868923121
496 28 2 94.0741804552 115.756499561 82.7913216501
497 28 2 93.8609696215 114.742839706 82.8133409549
498 28 2 93.7773994446 113.74215504 82.5582013134
499 28 2 93.8473302474 112.838401034 82.0564161096
500 28 2 94.0806311487 112.106698188 81.3609798113
501 28 2 94.4722805194 111.606484997 80.5425376658
502 28 2 95.0028236909 111.376100295 79.6829465749
503 28 2 95.6401461956 111.42928877 78.8678140566
504 28 2 96.3424009151 111.753948171 78.1786953489
505 29 1 112.435635891 34.990650556 13.3313060434
506 29 1 112.046544618 33.600207227 18.6635913313
507 29 2 112.117812698 34.6926661486 12.9884134962
508 29 2 111.621802383 33.9530956098 12.4588295121
509 29 2 111.279014561 33.0342579275 12.1246381984
510 29 2 111.104729678 32.017649381 12.0267512537
511 29 2 111.098869586 30.9936778025 12.1845418649
512 29 2 111.246004667 30.053422145 12.5940788931
513 29 2 111.516760203 29.2803308787 13.2284851864
514 29 2 111.870493801 28.7426158867 14.0403873602
515 29 2 112.258999841 28.4870351337 14.9662337551
516 29 2 112.630903286 28.5346308025 15.9320870002
517 29 2 112.936342382 28.8788113555 16.8603632073
518 29 2 113.131513423 29.4859523355 17.6769035348
519 29 2 113.182663341 30.2984611452 18.3177335678
520 29 2 113.069166208 31.2400264587 18.7348944151
521 29 2 112.785403237 32.2225737946 18.900814034
522 29 2 112.341274913 33.1542932695 18.8108203483
523 30 1 94.5987017283 57.4824244106 1.03988750756
524 30 1 89.682298599 59.2298050484 -0.774949189799
525 30 2 94.6662186156 57.5049649478 1.58971928381
526 30 2 94.7162315669 57.7680570957 2.59058452827
527 30 2 94.6488815989 58.2919511514 3.48190322065
528 30 2 94.4529079999 59.0237037751 4.18871469301
529 30 2 94.1287737582 59.8914258739 4.65287561736
530 30 2 93.6886233622 60.810835101 4.83835961461
531 30 2 93.1551758626 61.6929379657 4.73454096275
532 30 2 92.559654092 62.4521413528 4.357163103
533 30 2 91.9389387867 63.0140541057 3.7469036672
534 30 2 91.3322070062 63.322267582 2.96566682042
535 30 2 90.7773612494 63.3434971502 2.09094086177
536 30 2 90.3075747426 63.0706159951 1.20873537301
537 30 2 89.9482677889 62.5233047077 0.405741675104
538 30 2 89.7147907753 61.7462574522 -0.238568854032
539 30 2 89.6110250264 60.805108212 -0.659188383176
540 30 2 89.6290290313 59.7804484282 -0.811497917885
541 31 1 36.4030868154 60.9391442336 93.0628671489
542 31 1 34.5945254753 56.3884391355 95.6198536663
543 31 2 36.2657023663 61.4161026914 93.3098848218
544 31 2 35.7927233298 62.2148199199 93.7700930694
545 31 2 35.0790445455 62.8255948252 94.2072047474
546 31 2 34.1915042614 63.1881838479 94.5999533384
547 31 2 33.2127877362 63.2649649085 94.9311159016
548 31 2 32.2338906996 63.0443665592 95.1890828981
549 31 2 31.3458253344 62.5419226907 95.3689163691
550 31 2 30.6313247591 61.7988566596 95.4728000181
551 31 2 30.1573021258 60.8783238892 95.5098401717
552 31 2 29.9687516647 59.859655422 95.4952357624
553 31 2 30.0846475807 58.8311271069 95.4488929867
554 31 2 30.4962146048 57.8819134916 95.3936109084
555 31 2 31.1677278372 57.0939598007 95.3530033847
556 31 2 32.0397689757 56.534512848 95.3493467264
557 31 2 33.0346421354 56.2499916688 95.4015492717
558 31 2 34.0634556212 56.2617565487 95.5234279418
559 32 1 55.585796015 56.4275781803 5.04067633553
560 32 1 58.2374327029 51.9439446673 6.88019922402
561 32 2 55.5071066468 56.8243882592 5.41979548926
562 32 2 55.2754253614 57.388451763 6.25741482813
563 32 2 54.9665739257 57.676684041 7.20345021633
564 32 2 54.6251675252 57.6620893014 8.18154973806
565 32 2 54.2987886433 57.3452736258 9.11243891746
566 32 2 54.0336500457 56.754389726 9.92114637519
567 32 2 53.8703826093 55.9425709002 10.5438372693
568 32 2 53.8403319274 54.9830880746 10.9336316703
569 32 2 53.9627012419 53.9626713542 11.0648775418
570 32 2 54.2428011195 52.9736048057 10.9354888547
571 32 2 54.6715654078 52.1053150114 10.5671357233
572 32 2 55.2263775903 51.4362200753 10.0032692322
573 32 2 55.8731322224 51.0265820224 9.30516098651
574 32 2 56.5693435504 50.9130140764 8.5463183681
575 32 2 57.2680179754 51.1051434619 7.80578453479
576 32 2 57.9219373935 51.5847339089 7.16093384751
577 33 1 69.9099672373 22.367810218 15.7203222456
578 33 1 67.7713674839 18.3049941242 18.7924400076
579 33 2 69.8332573838 22.878444698 15.9221875824
580 33 2 69.4655720107 23.763711593 16.3153287814
581 33 2 68.8385824938 24.4861016366 16.713432765
582 33 2 68.0116187224 24.9768728362 17.0990810005
583 33 2 67.0622377047 25.1883946379 17.4559902634
584 33 2 66.0791544538 25.098489324 17.7704968095
585 33 2 65.1541558512 24.7124534526 18.0328017891
586 33 2 64.3737345179 24.0625750907 18.2378643857
587 33 2 63.8112052434 23.2051908433 18.385861273
588 33 2 63.5200225381 22.215550922 18.4821705117
589 33 2 63.5289083982 21.1809602896 18.5368813533
590 33 2 63.839234372 20.1928210464 18.5638746322
591 33 2 64.4248965471 19.3383013723 18.5795575645
592 33 2 65.2346948524 18.6923903808 18.6013682741
593 33 2 66.1969998074 18.3110630617 18.6461863544
594 33 2 67.2262813583 18.2261783099 18.7287943387