LAMMPS input file for bananas

648 atoms

2 atom types

0 33.7373066121 xlo xhi
0 33.7373066121 ylo yhi
0 33.7373066121 zlo zhi

Masses

 1 1
 2 1

Atoms

1 1 1 28.1319293162 23.2850512366 27.3741237818
2 1 1 31.7677586224 19.9315730915 29.7972549201
3 1 2 28.2074929219 23.8252840991 27.4732164022
4 1 2 28.3571507004 24.7647051616 27.8828368214
5 1 2 28.5218376748 25.5394301938 28.5502029847
6 1 2 28.705554992 26.0801757592 29.4142287089
7 1 2 28.9105693133 26.3389840453 30.3959036399
8 1 2 29.1372062246 26.2935938897 31.4054945052
9 1 2 29.3838205606 25.9494697323 32.3507236862
10 1 2 29.6469463509 25.3393035692 33.1451796906
11 1 2 29.9216127191 24.5200353012 33.7161929675
12 1 2 30.2017969443 23.5676630524 34.0114592384
13 1 2 30.4809733909 22.5703164622 34.0038066742
14 1 2 30.7527082751 21.6202242727 33.6936724204
15 1 2 31.0112460609 20.8053083117 33.1090627551
16 1 2 31.252034037 20.2011700201 32.3030005079
17 1 2 31.4721372657 19.8641998998 31.3486923932
18 1 2 31.6705060821 19.8264379053 30.3328567197
19 2 1 11.7760542577 14.8864968476 24.4314682706
20 2 1 17.0004799307 16.3766919469 25.3377407907
21 2 2 11.4066304549 15.2994356537 24.4511748182
22 2 2 10.8219656628 16.1195549831 24.6925658651
23 2 2 10.4289883117 16.9489083062 25.1726076737
24 2 2 10.2731674911 17.7260897396 25.8392463784
25 2 2 10.3783570989 18.3944485097 26.6234210859
26 2 2 10.7446217219 18.9072522829 27.445358302
27 2 2 11.3482307493 19.2319464967 28.2218427388
28 2 2 12.1438212549 19.3531214856 28.8738018177
29 2 2 13.0685325172 19.2739169658 29.3335125925
30 2 2 14.047735343 19.0157358721 29.550774232
31 2 2 15.0018340064 18.6162936267 29.4974834813
32 2 2 15.8535208542 18.1261806376 29.1701960812
33 2 2 16.5348223678 17.6042513292 28.5904406882
34 2 2 16.9932944835 17.1122599653 27.8027566856
35 2 2 17.1968025099 16.7092321713 26.8706347238
36 2 2 17.1364499839 16.4460851533 25.870729983
37 3 1 21.6809802087 23.2684461811 26.5662277308
38 3 1 18.5922573195 20.677308674 30.3188844244
39 3 2 21.4018504158 23.5975562032 26.2181560375
40 3 2 20.7441569686 24.022582983 25.5402992406
41 3 2 19.9517249254 24.1740722573 24.8908373651
42 3 2 19.0837142631 24.0458549061 24.3405501018
43 3 2 18.2061734315 23.6572551507 23.9511780559
44 3 2 17.3860194901 23.0513292833 23.7697955136
45 3 2 16.6849390767 22.2909413812 23.8245199438
46 3 2 16.1537660933 21.4530336771 24.1219492838
47 3 2 15.8278485449 20.6216138022 24.6465605821
48 3 2 15.7238268105 19.8800980666 25.3621248097
49 3 2 15.8381169872 19.3037086345 26.2150088868
50 3 2 16.1472375381 18.9526175395 27.1390639713
51 3 2 16.6099494735 18.8664624166 28.0616544713
52 3 2 17.171015002 19.0607338033 28.910278282
53 3 2 17.7662320765 19.5253632836 29.6191748551
54 3 2 18.3282859708 20.2256411544 30.1353188221
55 4 1 24.0384875263 19.1635715543 15.5705129374
56 4 1 28.1155251272 15.4603548909 15.5463122975
57 4 2 23.5477603999 18.9723602955 15.7437350308
58 4 2 22.6729685616 18.4439042362 15.911579316
59 4 2 21.9271092517 17.7261757477 15.8761113332
60 4 2 21.3833644198 16.8729326065 15.6547158257
61 4 2 21.0964946664 15.9502838203 15.2817235563
62 4 2 21.0978481897 15.0306642458 14.8052822932
63 4 2 21.3925036126 14.1862326476 14.282968471
64 4 2 21.9588071005 13.4822949219 13.7765394937
65 4 2 22.7503459601 12.9713519116 13.3463049705
66 4 2 23.7001788385 12.6883143144 13.0456299085
67 4 2 24.7269369679 12.6473208124 12.9160708584
68 4 2 25.7422403716 12.8404494276 12.9835883193
69 4 2 26.6587530925 13.2384395563 13.2561806176
70 4 2 27.3981432667 13.7933588725 13.7231549144
71 4 2 27.8982225363 14.4429720306 14.3561017843
72 4 2 28.1186140917 15.1164129904 15.1114845396
73 5 1 8.07269064813 20.5581627223 5.90850222009
74 5 1 5.80922967563 15.8720307875 4.1047431336
75 5 2 8.50637392954 20.7387507511 5.614074764
76 5 2 9.39335372841 20.8555376488 5.0922261959
77 5 2 10.3040841008 20.6736580119 4.63376326643
78 5 2 11.1501425581 20.2054841213 4.26268838725
79 5 2 11.8490010136 19.4894820157 3.99503914834
80 5 2 12.3315476513 18.5867055768 3.8374266017
81 5 2 12.5483859946 17.5752318861 3.78643270922
82 5 2 12.4743370559 16.5430450345 3.82892187349
83 5 2 12.1107342293 15.5800169753 3.94323815737
84 5 2 11.4853017604 14.7697163122 4.10117907425
85 5 2 10.6496278716 14.1817915937 4.2705660513
86 5 2 9.67446284916 13.8656233258 4.41817728578
87 5 2 8.64327064007 13.845823277 4.51277568461
88 5 2 7.64462168506 14.1199912848 4.52795591119
89 5 2 6.76412033043 14.6589340135 4.44455105084
90 5 2 6.07660257874 15.4093257272 4.25237954364
91 6 1 6.12379729528 26.7495809078 11.2790482015
92 6 1 1.96299089426 23.1708618396 11.7449825865
93 6 2 6.59198049246 26.6010959254 11.5362202363
94 6 2 7.32315536281 26.2882749397 12.1997144797
95 6 2 7.81014483242 25.9388241622 13.0443585951
96 6 2 8.00895178576 25.5658213217 13.9898970382
97 6 2 7.90184496785 25.1844907562 14.9468784385
98 6 2 7.49897506657 24.8108158186 15.8248084783
99 6 2 6.83744954708 24.460082104 16.5403978295
100 6 2 5.97795056074 24.1454842721 17.0251534047
101 6 2 4.99920418313 23.8769234447 17.2316210327
102 6 2 3.99080507194 23.6601047864 17.1377105805
103 6 2 3.04505052823 23.4960175176 16.7487093178
104 6 2 2.24852823024 23.3808447544 16.0968000185
105 6 2 1.67422436016 23.3063113908 15.2381277215
106 6 2 1.37487141402 23.2604383182 14.2476824954
107 6 2 1.37814199624 23.2286342392 13.2124646077
108 6 2 1.68412665144 23.1950255637 12.2235550472
109 7 1 5.91459839953 20.5703061694 20.8335084203
110 7 1 6.80863374683 19.7419727317 15.4621771663
111 7 2 6.14788475876 20.197621453 21.1712425293
112 7 2 6.48068327962 19.346335505 21.6583314846
113 7 2 6.66740219846 18.3598568387 21.9126819461
114 7 2 6.70771105871 17.3249806538 21.9024472556
115 7 2 6.61462367688 16.3329132523 21.6198958775
116 7 2 6.41331202234 15.4709592089 21.0821160751
117 7 2 6.13881196492 14.8145641578 20.3294584328
118 7 2 5.83282999559 14.4204384405 19.4218581769
119 7 2 5.53994196575 14.3213883468 18.4333724906
120 7 2 5.30353030399 14.5233260464 17.4454307095
121 7 2 5.16183000515 15.0047307353 16.5394125961
122 7 2 5.14444377269 15.7186101095 15.789231132
123 7 2 5.26964393525 16.5967833914 15.254595857
124 7 2 5.54270704912 17.55609554 14.9755707532
125 7 2 5.95543297637 18.5059962629 14.9689226883
126 7 2 6.48689227116 19.3567930546 15.2265932304
127 8 1 6.78847882707 4.40238090614 -0.47493588167
128 8 1 5.4319690808 2.97856539157 4.66989313548
129 8 2 6.95769298535 4.92665109135 -0.537290457913
130 8 2 7.07698417336 5.95546665787 -0.534757943766
131 8 2 6.94033626691 6.96796797778 -0.364855919242
132 8 2 6.57041501874 7.87452336705 -0.0271965236831
133 8 2 6.0111474473 8.59515738689 0.463318169361
134 8 2 5.32371819028 9.06684005659 1.07785437397
135 8 2 4.58099294427 9.2492316042 1.77627459374
136 8 2 3.86087725617 9.12835916014 2.51079587942
137 8 2 3.23921596669 8.71789028845 3.23034491709
138 8 2 2.7828804731 8.05788728203 3.8852130106
139 8 2 2.5436738599 7.21115575936 4.43158668841
140 8 2 2.55360940276 6.25752036293 4.83554100111
141 8 2 2.821992778 5.28654929037 5.07613154796
142 8 2 3.33457391395 4.38939076735 5.14730341548
143 8 2 4.0548457873 3.6504655117 5.05844304121
144 8 2 4.92737178798 3.13977236382 4.83352270438
145 9 1 29.6704441607 28.9584990701 19.7698103331
146 9 1 26.8206624292 25.9498296318 23.3979348102
147 9 2 29.5724700175 29.5038995418 19.7877029099
148 9 2 29.1642301894 30.4554654647 19.8113843008
149 9 2 28.4955235897 31.245975693 19.8363509492
150 9 2 27.6255524549 31.8063535927 19.8790722013
151 9 2 26.6318629042 32.0884975135 19.9543991932
152 9 2 25.6032771417 32.0696649249 20.0742112711
153 9 2 24.6317979225 31.7545452415 20.2463332709
154 9 2 23.8042231314 31.1748324154 20.4738223374
155 9 2 23.1942347513 30.3863362494 20.7546892872
156 9 2 22.8556832558 29.4638957164 21.0820799087
157 9 2 22.817679507 28.4945579 21.4448996765
158 9 2 23.0819415009 27.5696442496 21.8288249414
159 9 2 23.6226377832 26.7764272566 22.2176084331
160 9 2 24.3887418095 26.1901761648 22.594560087
161 9 2 25.3086826649 25.8672966953 22.9440682295
162 9 2 26.2968682625 25.8401900512 23.2530224748
163 10 1 27.8533527801 14.272107825 14.1305455577
164 10 1 25.8802854977 18.5775054581 16.9425184678
165 10 2 28.0712598168 14.3940621514 13.6355461463
166 10 2 28.2755525607 14.7370675831 12.6798735979
167 10 2 28.2081513572 15.2156929166 11.7638642426
168 10 2 27.8839774401 15.8028368748 10.9746421478
169 10 2 27.3413551159 16.4615074519 10.3877755913
170 10 2 26.6385187654 17.1481934814 10.0603895311
171 10 2 25.8483051796 17.8168303802 10.0259590568
172 10 2 25.0515149855 18.4229986197 10.2912583651
173 10 2 24.3295482226 18.9279722615 10.8357433378
174 10 2 23.7569852879 19.3022485607 11.6134239977
175 10 2 23.3947894437 19.5282369394 12.5570561793
176 10 2 23.2847504343 19.6018622468 13.5842703739
177 10 2 23.4456756373 19.5329361814 14.6050791453
178 10 2 23.8716759 19.3442630221 15.5300788675
179 10 2 24.5327022957 19.0695611744 16.2785982528
180 10 2 25.3772848767 18.7503899687 16.7860509861
181 11 1 29.0321458252 28.3239060906 29.3544908018
182 11 1 26.6603662513 23.8952419747 27.096564601
183 11 2 28.9135469081 28.8060315017 29.1077720621
184 11 2 28.7531188962 29.5909642357 28.4513867125
185 11 2 28.6692457858 30.1609756128 27.5907180176
186 11 2 28.6511800501 30.4617483292 26.5998054718
187 11 2 28.6821762715 30.4635043389 25.5645594036
188 11 2 28.7410173713 30.1637189188 24.574930838
189 11 2 28.803948401 29.5873507795 23.7167130774
190 11 2 28.8468416432 28.7845672504 23.0637222303
191 11 2 28.8473956873 27.8261718714 22.6710693792
192 11 2 28.7871680503 26.7971511352 22.5701375831
193 11 2 28.6532560828 25.7889285522 22.7657215268
194 11 2 28.4394729569 24.8910320232 23.2355905186
195 11 2 28.1469115532 24.1829339859 23.9325146649
196 11 2 27.7838448522 23.7268080466 24.7885695517
197 11 2 27.3649719088 23.5618622826 25.721327089
198 11 2 26.9100781345 23.7007656944 26.641368266
199 12 1 15.1144486854 13.4374651108 -0.904988104966
200 12 1 13.2328199808 11.7393402095 3.98505076647
201 12 2 15.3160796881 13.9538535533 -0.913274655956
202 12 2 15.489033538 14.9710655026 -0.823468826373
203 12 2 15.3916914864 15.9754777281 -0.590276036317
204 12 2 15.0418127988 16.8764656764 -0.218114926063
205 12 2 14.4801737233 17.592831208 0.275929854507
206 12 2 13.7668510158 18.0602032506 0.86366479461
207 12 2 12.9757463552 18.2369047817 1.50835716777
208 12 2 12.1878507122 18.1077514027 2.168082968
209 12 2 11.4838625774 17.6854352933 2.79954799549
210 12 2 10.9368328475 17.0093684061 3.36203382612
211 12 2 10.6055067366 16.1420903372 3.82110901665
212 12 2 10.5289695528 15.1635682711 4.15176729465
213 12 2 10.7230843404 14.16390852 4.34070670886
214 12 2 11.1790460721 13.2351439509 4.38754201082
215 12 2 11.864184167 12.4628458213 4.30483976758
216 12 2 12.7249401898 11.9183245454 4.11697300535
217 13 1 32.9580148622 27.029952666 21.351145275
218 13 1 32.0291129718 22.7256501543 24.6597335075
219 13 2 32.5656881986 27.4216223644 21.3585875958
220 13 2 31.6878947504 27.9709838755 21.3391231812
221 13 2 30.6888604172 28.2403399496 21.2935602858
222 13 2 29.6548988427 28.2054733339 21.2445087554
223 13 2 28.6755070493 27.8698945881 21.2148964013
224 13 2 27.8352083979 27.2645221211 21.2258792866
225 13 2 27.2058488633 26.4448641893 21.2949134972
226 13 2 26.8400487659 25.4859597005 21.4341641384
227 13 2 26.7664067904 24.4755389311 21.6493965694
228 13 2 26.9868934117 23.5060275135 21.93945093
229 13 2 27.4766712998 22.6661224732 22.2963478543
230 13 2 28.186359072 22.0327081028 22.7060157349
231 13 2 29.0465320674 21.6638484862 23.1495732536
232 13 2 29.9740499285 21.5934953553 23.6050502841
233 13 2 30.8796342755 21.8283936224 24.0493903181
234 13 2 31.6760058175 22.3474666277 24.4605519084
235 14 1 9.04965266511 10.6340821976 29.0757862256
236 14 1 7.63728560005 11.3935892221 23.8065354932
237 14 2 9.03832004505 10.1075501526 29.2490384374
238 14 2 8.80225986385 9.12519090103 29.4769510584
239 14 2 8.3124145525 8.21554034083 29.5496538807
240 14 2 7.62013464228 7.4522939939 29.4452421433
241 14 2 6.79522119023 6.8958036419 29.1579538633
242 14 2 5.9195638914 6.58757667507 28.6986950006
243 14 2 5.07967739454 6.54649297822 28.0940454547
244 14 2 4.35881608507 6.76708415867 27.3838364892
245 14 2 3.82938601862 7.22003195273 26.6175203849
246 14 2 3.54634560549 7.85484038446 25.8496632037
247 14 2 3.54219652837 8.60443812765 25.1349714662
248 14 2 3.82402143675 9.39129159733 24.5233060272
249 14 2 4.37283841204 10.1344716045 24.0551376006
250 14 2 5.14533103926 10.7570294969 23.7578581318
251 14 2 6.07779640131 11.193010501 23.643284209
252 14 2 7.09195116309 11.3934650473 23.7065800628
253 15 1 15.086294709 12.2745526317 3.58214879365
254 15 1 14.8236896204 12.6142531698 9.07325770159
255 15 2 15.5921365702 12.3434491002 3.36591271963
256 15 2 16.5395692675 12.6644250932 3.09750264673
257 15 2 17.4233364319 13.2010725968 3.03697722248
258 15 2 18.1737785092 13.8954104136 3.20259713644
259 15 2 18.7333876126 14.6750849551 3.59201148108
260 15 2 19.0620489725 15.4599647756 4.18247202085
261 15 2 19.1406971229 16.1694440037 4.93290653794
262 15 2 18.9730535874 16.7297890152 5.78766228328
263 15 2 18.5852876885 17.0808587472 6.68157834309
264 15 2 18.0236313928 17.1815861438 7.54592460943
265 15 2 17.3501655843 17.0137211364 8.31466605827
266 15 2 16.6371618176 16.5834940129 8.93048138924
267 15 2 15.960495261 15.9210475688 9.34998746913
268 15 2 15.3927291955 15.0776897989 9.54769340705
269 15 2 14.9965013686 14.1212175249 9.51832387436
270 15 2 14.8188149938 13.1297371801 9.27729991473
271 16 1 13.1715536079 21.6931321395 23.2937690563
272 16 1 12.1329135261 17.1598935709 20.3429031178
273 16 2 13.6230873642 21.9757716174 23.1401040178
274 16 2 14.570230094 22.292983529 22.8662509119
275 16 2 15.5749764073 22.3103083227 22.6154861445
276 16 2 16.5450086156 22.024563387 22.3916879818
277 16 2 17.3911729832 21.4601888384 22.1962768689
278 16 2 18.0356054787 20.6670199725 22.0280859659
279 16 2 18.4188285479 19.7157451179 21.8834674975
280 16 2 18.5051720848 18.6914628805 21.7566252225
281 16 2 18.2860245174 17.6859259882 21.6401427215
282 16 2 17.7806176932 16.7891786595 21.5256593529
283 16 2 17.0342740287 16.0813496899 21.4046322678
284 16 2 16.1142756811 15.6253492619 21.2691150322
285 16 2 15.1037322416 15.4611351127 21.1124818898
286 16 2 14.0940058658 15.602070661 20.9300316547
287 16 2 13.1763842393 16.0337070225 20.7194161919
288 16 2 12.4337603316 16.7150999269 20.4808544337
289 17 1 3.29783601997 16.2570309062 17.744887948
290 17 1 7.42771057397 16.2291024114 14.1007157383
291 17 2 3.43862941419 16.1129339192 18.2614090319
292 17 2 3.80163383686 15.6597791472 19.11906678
293 17 2 4.27946140805 15.0116032959 19.7704093543
294 17 2 4.84566761767 14.2357033789 20.1578214321
295 17 2 5.46575284866 13.4110175825 20.2477431458
296 17 2 6.10030678057 12.6209305915 20.0337288348
297 17 2 6.70860037006 11.9456736469 19.5370345235
298 17 2 7.25229802397 11.4550120182 18.8046805801
299 17 2 7.69895162577 11.2018863774 17.9051661327
300 17 2 8.02495795894 11.2175876199 16.9222258432
301 17 2 8.21770997833 11.5089049136 15.9471980669
302 17 2 8.2767458559 12.0575069132 15.070699988
303 17 2 8.21379107313 12.8216125362 14.3743684842
304 17 2 8.05168972385 13.7397990226 13.9234194851
305 17 2 7.82232243163 14.7366001979 13.7607039873
306 17 2 7.56370064958 15.7293846979 13.9028024801
307 18 1 27.3852549493 13.091045923 15.0965805295
308 18 1 25.7352274254 16.8159143157 11.3899109254
309 18 2 27.9331814164 13.0660423818 15.177402316
310 18 2 28.9637489474 13.0059738391 15.0936132632
311 18 2 29.924746238 12.9489415112 14.7116056818
312 18 2 30.7334480365 12.9185475941 14.0652498341
313 18 2 31.3210097816 12.9359663753 13.2125095144
314 18 2 31.6387423111 13.0180143427 12.2301590465
315 18 2 31.6625495464 13.1756174771 11.2067858307
316 18 2 31.3951246839 13.4128154235 10.2347162097
317 18 2 30.8657047292 13.7263933059 9.40160055487
318 18 2 30.1274057441 14.1061747405 8.78242453657
319 18 2 29.2523816821 14.5359493437 8.43267469397
320 18 2 28.3252480499 14.9949501975 8.38328121753
321 18 2 27.4353697845 15.4597466112 8.63779887424
322 18 2 26.6687162514 15.906379669 9.17208301494
323 18 2 26.1000257267 16.31254592 9.93649019355
324 18 2 25.7859935155 16.6596301857 10.8604028269
325 19 1 13.0230817098 20.0173678388 24.4538206867
326 19 1 11.9738708143 16.3305275522 20.4986974112
327 19 2 12.6112110052 20.0975853393 24.8161857333
328 19 2 11.7118388214 20.2735170938 25.2987579703
329 19 2 10.7105928518 20.4541878098 25.4925694036
330 19 2 9.69196241257 20.605437049 25.3820525855
331 19 2 8.74202129541 20.6957859388 24.9793775017
332 19 2 7.94058273106 20.699306256 24.3233423608
333 19 2 7.35392496077 20.5979836066 23.4758374037
334 19 2 7.02875042898 20.3833593138 22.5162040321
335 19 2 6.98792917568 20.0573013693 21.534003384
336 19 2 7.2284143891 19.6318341777 20.6208534499
337 19 2 7.72152010168 19.1280426152 19.8620787212
338 19 2 8.41553571935 18.5741502873 19.3289334477
339 19 2 9.24043908768 18.0029471409 19.0721073014
340 19 2 10.1142785311 17.448800885 19.11710536
341 19 2 10.9506421864 16.9445246103 19.4619234947
342 19 2 11.6665338514 16.5183861005 20.0772310321
343 20 1 14.2942639702 11.4041837543 18.8585917887
344 20 1 10.7392938406 7.47813385349 17.3469851994
345 20 2 14.1250078079 11.9237774803 18.765021157
346 20 2 13.7636756975 12.8123537323 18.3744195424
347 20 2 13.3572293282 13.522286292 17.7392066799
348 20 2 12.9241769941 13.9876966795 16.9215532581
349 20 2 12.4854519404 14.1649929346 16.0002581716
350 20 2 12.0625044418 14.0368427248 15.0635665424
351 20 2 11.675346757 13.6137530686 14.2011267816
352 20 2 11.3407291488 12.9331126932 13.4958197515
353 20 2 11.0706132119 12.0557843078 13.0162047435
354 20 2 10.8710816561 11.0605573853 12.8102707685
355 20 2 10.7417839088 10.0369670419 12.9010626876
356 20 2 10.6759680671 9.07713352526 13.284580831
357 20 2 10.6610962878 8.26736608523 13.9301455407
358 20 2 10.6799875257 7.68029647776 14.7831934105
359 20 2 10.712383468 7.36825907818 15.7702503669
360 20 2 10.7367949408 7.35852096171 16.805628327
361 21 1 19.4674239585 8.23265435561 17.1723394315
362 21 1 20.6936594135 8.61891044003 22.5280641979
363 21 2 19.8322654053 7.94774583696 16.8672187893
364 21 2 20.6706858609 7.55591887167 16.4022230473
365 21 2 21.6490230467 7.36553537783 16.1206049597
366 21 2 22.6828563997 7.37982736473 16.059920461
367 21 2 23.6827072618 7.58337207486 16.237588904
368 21 2 24.5621942459 7.94349766253 16.6493054048
369 21 2 25.2459063071 8.41326100862 17.2694332038
370 21 2 25.6762759426 8.93572626397 18.0533402805
371 21 2 25.8188260746 9.44915416177 18.941467256
372 21 2 25.6653123999 9.89262912836 19.8647558224
373 21 2 25.2344748013 10.2116113202 20.7509429336
374 21 2 24.5703293359 10.3629075565 21.5311470869
375 21 2 23.7381564735 10.3186080818 22.1461463995
376 21 2 22.8185512287 10.0686303487 22.5517762774
377 21 2 21.9000774787 9.62163797264 22.7229547148
378 21 2 21.0711959725 9.00425110331 22.6559683475
379 22 1 24.7492061251 17.5144623283 21.1541912949
380 22 1 19.9070415551 16.2139315495 23.4342564031
381 22 2 24.9187446544 18.0349113803 21.2423401635
382 22 2 25.0189091266 19.0617686954 21.3330562264
383 22 2 24.8258610071 20.0793259017 21.3358893457
384 22 2 24.3517015491 20.9976639716 21.2686117949
385 22 2 23.634153377 21.7359070215 21.1553859546
386 22 2 22.7331223276 22.2295935942 21.0245620766
387 22 2 21.7252374442 22.4365518787 20.9060943537
388 22 2 20.6968667643 22.3407433814 20.8288107994
389 22 2 19.7362454655 21.9537247253 20.8177857728
390 22 2 18.9254338336 21.3135943428 20.8920546226
391 22 2 18.3328380306 20.4815200646 21.0628787452
392 22 2 18.0069753414 19.5361640918 21.332719186
393 22 2 17.9720521569 18.5665134749 21.6950123319
394 22 2 18.2257577263 17.6637695551 22.1347681396
395 22 2 18.7394747672 16.9130355866 22.6299363751
396 22 2 19.460887734 16.3855601587 23.1534163418
397 23 1 12.5332806389 30.3450448647 15.6545305545
398 23 1 17.7755959999 31.7098742298 16.6505252266
399 23 2 12.4482036444 29.8110647857 15.5320236897
400 23 2 12.4636423188 28.8488110411 15.1492343883
401 23 2 12.7140468658 28.0022074321 14.6077012285
402 23 2 13.1888180681 27.339776749 13.9685798263
403 23 2 13.856907226 26.9132556827 13.3019202969
404 23 2 14.6696460338 26.7528793798 12.680282667
405 23 2 15.5651823617 26.8646257165 12.1721235259
406 23 2 16.4741176537 27.2296704561 11.8355566764
407 23 2 17.3258321301 27.8061029491 11.7130564608
408 23 2 18.0549212962 28.5327460015 11.8275865149
409 23 2 18.6071571137 29.3347317568 12.180506791
410 23 2 18.9444305143 30.1303253877 12.7514496068
411 23 2 19.0482247803 30.838374665 13.5001760202
412 23 2 18.9213032165 31.3857064275 14.3702433335
413 23 2 18.5874572936 31.7137958131 15.2941494574
414 23 2 18.089338219 31.7841003996 16.1994852646
415 24 1 4.46013711728 5.05493491891 16.7723676494
416 24 1 9.43186939694 4.79335777891 19.1282306475
417 24 2 4.40730720991 4.76714837597 16.3014444516
418 24 2 4.50573826373 4.34304525084 15.3616858985
419 24 2 4.86026090803 4.08686992952 14.4228642059
420 24 2 5.44878586396 4.00635919389 13.5744217101
421 24 2 6.22789614628 4.09323920324 12.8975633031
422 24 2 7.13680422396 4.32397959808 12.457855164
423 24 2 8.1028923868 4.66193813111 12.2992488506
424 24 2 9.04833135189 5.06070035685 12.4400754166
425 24 2 9.89717386911 5.46830999008 12.8713746619
426 24 2 10.5822767923 5.83200436506 13.5577117928
427 24 2 11.0514207167 6.10302339076 14.4404070613
428 24 2 11.2720694195 6.24105369883 15.4428840212
429 24 2 11.2343353139 6.21790293075 16.4776489464
430 24 2 10.9518806344 6.02006927802 17.454265284
431 24 2 10.460672218 5.64997207943 18.2875963265
432 24 2 9.81570337354 5.12573131492 18.9055648383
433 25 1 33.4071611652 15.9263250323 17.6312517997
434 25 1 28.0084268878 14.9023674863 17.2546697066
435 25 2 33.581229441 16.0911807005 18.1311553861
436 25 2 33.7287924143 16.5523261296 19.046725336
437 25 2 33.625467238 17.1657436173 19.8748202369
438 25 2 33.2700637903 17.8646704281 20.5514944374
439 25 2 32.6843671557 18.5745502379 21.0266032449
440 25 2 31.9111520639 19.2198284319 21.2683732705
441 25 2 31.0102842662 19.7308383895 21.2662983555
442 25 2 30.0532641828 20.0501511196 21.0320971355
443 25 2 29.1167101298 20.1378095187 20.5986449675
444 25 2 28.2753750849 19.9749701876 20.0169775663
445 25 2 27.5953334662 19.5656208777 19.351639449
446 25 2 27.1279589017 18.9362170348 18.6748011447
447 25 2 26.9052418755 18.1332705668 18.059681346
448 25 2 26.9368740145 17.2191106019 17.5738735265
449 25 2 27.2093647631 16.2662026161 17.2731852597
450 25 2 27.6872709547 15.350543702 17.1965517412
451 26 1 25.6369175379 10.3762214209 17.8983761322
452 26 1 25.8512781104 15.8794544774 17.8268890891
453 26 2 25.2125718502 10.160800478 18.1828147132
454 26 2 24.4936324566 9.90468393902 18.8829780783
455 26 2 23.9161275741 9.86889927895 19.7419925368
456 26 2 23.5186350633 10.0688363239 20.6772588908
457 26 2 23.323325891 10.4984004827 21.5992281049
458 26 2 23.3339433989 11.1305682272 22.4195630868
459 26 2 23.5354621237 11.9198501014 23.0591900075
460 26 2 23.8954572652 12.8064367735 23.4555053392
461 26 2 24.3670599839 13.7216502466 23.5680817368
462 26 2 24.8932291754 14.5942033872 23.3823527142
463 26 2 25.4119503749 15.3566972586 22.9109402786
464 26 2 25.8618879514 15.9517640717 22.1925045221
465 26 2 26.1879754293 16.3372958663 21.2882200186
466 26 2 26.3464344205 16.490282362 20.2762001812
467 26 2 26.308764724 16.4089081886 19.24437776
468 26 2 26.0643419242 16.1127183436 18.2824903748
469 27 1 4.67948414489 28.9098149816 5.82848159882
470 27 1 3.42201316034 24.3390811423 8.63272727646
471 27 2 4.46658790271 28.9385295577 5.31737357225
472 27 2 4.16088472027 28.7767188102 4.34112508065
473 27 2 3.9843654556 28.3423073734 3.41763933421
474 27 2 3.93586619957 27.6672147098 2.63367760765
475 27 2 4.00255489692 26.8052967253 2.06328451791
476 27 2 4.16110090023 25.8274371733 1.76103936491
477 27 2 4.37980139841 24.815087086 1.75708160257
478 27 2 4.62147091057 23.8528410714 2.05436383429
479 27 2 4.84683048769 23.0207270947 2.6283827033
480 27 2 5.01808771951 22.3869124784 3.42941220569
481 27 2 5.1023812536 22.0014909174 4.38703587474
482 27 2 5.07477588236 21.8919167829 5.41656475904
483 27 2 4.9205352162 22.0605028444 6.42675623983
484 27 2 4.63646480447 22.4842094766 7.32813017008
485 27 2 4.23120328766 23.1167445632 8.04112437642
486 27 2 3.72443504463 23.8927827062 8.50334620579
487 28 1 10.0854839148 25.882972321 25.5252814451
488 28 1 10.3224189871 23.7248681189 20.4633566184
489 28 2 9.78010836784 25.5970183062 25.8890902251
490 28 2 9.04782393897 25.0703809478 26.398119575
491 28 2 8.16819307828 24.5806428236 26.6412335187
492 28 2 7.22553894651 24.1544667707 26.5914798164
493 28 2 6.30992884344 23.8127223796 26.2485991063
494 28 2 5.50896519106 23.5685838735 25.6390485436
495 28 2 4.89980117342 23.4263293684 24.8135904123
496 28 2 4.54210875285 23.3809509523 23.842665491
497 28 2 4.47263997972 23.4186111216 22.809972859
498 28 2 4.70187729503 23.5179039751 21.8048412986
499 28 2 5.21307812779 23.6518062152 20.9140875898
500 28 2 5.96380086555 23.7901401355 20.2141037553
501 28 2 6.88977311641 23.9023241129 19.7638944518
502 28 2 7.9107496969 23.9601599119 19.5996991001
503 28 2 8.93782643024 23.940402761 19.73168891
504 28 2 9.88154315254 23.8268799541 20.1430398446
505 29 1 30.2522581618 14.7692890397 18.656478932
506 29 1 28.4273269662 11.4051091411 22.6173569493
507 29 2 30.2632721872 15.3070532221 18.7909003853
508 29 2 30.0622615012 16.2716131747 19.1101449201
509 29 2 29.5951054558 17.1062874793 19.5073631291
510 29 2 28.9100527981 17.7342970965 19.964533828
511 29 2 28.0752120574 18.0976990563 20.4581715741
512 29 2 27.1723439198 18.1626675625 20.9614672033
513 29 2 26.2894093022 17.9225769819 21.4467313018
514 29 2 25.5125523179 17.3986057257 21.887917906
515 29 2 24.9182488311 16.6378059825 22.2629984138
516 29 2 24.5663362064 15.7088152336 22.5559693407
517 29 2 24.494559543 14.6956004173 22.7583109274
518 29 2 24.7151314682 13.6898049182 22.8697636575
519 29 2 25.2136190395 12.7823959013 22.8983519109
520 29 2 25.9502592089 12.0553732778 22.8596525964
521 29 2 26.8635829517 11.5742959763 22.7753754233
522 29 2 27.876017747 11.3823066953 22.67138421
523 30 1 20.396158468 28.9063130467 28.8788675394
524 30 1 23.5889091185 28.1207781573 24.4600539941
525 30 2 20.6000044651 28.7081597322 29.3548536999
526 30 2 21.0115139048 28.1416987486 30.1180576086
527 30 2 21.4454111349 27.3697922064 30.6552649754
528 30 2 21.8806953967 26.4667999705 30.9157086437
529 30 2 22.2962395131 25.5190294681 30.8738465708
530 30 2 22.6727154859 24.6168693584 30.5316898093
531 30 2 22.9943561105 23.8465512261 29.9186192141
532 30 2 23.2503920482 23.2822901634 29.0887075785
533 30 2 23.4360333776 22.9795205736 28.11579127
534 30 2 23.5529061635 22.9698437049 27.0867405515
535 30 2 23.6089042517 23.2581474134 26.0935419526
536 30 2 23.6174697994 23.8221606688 25.2249143279
537 30 2 23.5963681147 24.6144834055 24.558222742
538 30 2 23.5660684706 25.5669067145 24.1524271737
539 30 2 23.547878471 26.5966296169 24.0427087189
540 30 2 23.5620020085 27.6138058059 24.2372630742
541 31 1 4.45218608902 8.51890892734 15.6621490994
542 31 1 0.671821961243 12.0825189839 13.8328964233
543 31 2 4.96939625898 8.71692045074 15.6879527488
544 31 2 5.89218189583 9.15423942396 15.5149872749
545 31 2 6.68211049857 9.65883751582 15.074428721
546 31 2 7.26417011405 10.2025668774 14.412414177
547 31 2 7.58229462213 10.7537131129 13.5952649277
548 31 2 7.60447377815 11.2798858291 12.7034417229
549 31 2 7.32567072726 11.7509707982 11.8242113311
550 31 2 6.76828107917 12.1418746625 11.0436927726
551 31 2 5.98009170196 12.4348120225 10.4390081607
552 31 2 5.02992527659 12.6209264539 10.0712535501
553 31 2 4.00136758145 12.7010977098 9.97993045018
554 31 2 2.98514922169 12.6858615374 10.1793455334
555 31 2 2.07087615666 12.5944494171 10.6573066803
556 31 2 1.33886273105 12.4530357444 11.3762342072
557 31 2 0.852811572967 12.2923522137 12.2765859973
558 31 2 0.654007536223 12.1448868346 13.2822843556
559 32 1 26.2153888026 9.69545258433 4.22110993408
560 32 1 21.4324238797 7.3064934844 5.54502680916
561 32 2 26.2533631929 10.2334464101 4.3495674786
562 32 2 26.1175285876 11.2521262991 4.47816963566
563 32 2 25.7170962904 12.2072240154 4.46631220246
564 32 2 25.0795204228 13.0122788986 4.33184317521
565 32 2 24.2538691171 13.5945056638 4.10378575627
566 32 2 23.3063522919 13.9014282812 3.81969308823
567 32 2 22.3142870727 13.9056628067 3.5222255425
568 32 2 21.3590508656 13.6074132406 3.25526251884
569 32 2 20.5186643647 13.0344529341 3.059903139
570 32 2 19.8606805008 12.239593239 2.9707203435
571 32 2 19.436027455 11.295870115 3.01260980517
572 32 2 19.2743669039 10.2898874027 3.19852085923
573 32 2 19.3813905616 9.31392347751 3.52827626019
574 32 2 19.7383014184 8.45752070793 3.98858833655
575 32 2 20.3035269598 7.799324283 4.55427007095
576 32 2 21.016508216 7.39991424233 5.19053072414
577 33 1 7.60992129358 3.73055826467 21.1399449873
578 33 1 10.0221400129 8.6608513566 21.5982525314
579 33 2 7.05666572336 3.73490517915 21.1755838704
580 33 2 6.06341447876 3.86932343064 21.4365090893
581 33 2 5.19842902121 4.17005021908 21.9203084568
582 33 2 4.53621846911 4.62566017038 22.5734508824
583 33 2 4.13281039849 5.21061137206 23.3269708166
584 33 2 4.02064431354 5.88757334345 24.1027539885
585 33 2 4.20561500828 6.61082945305 24.8206569855
586 33 2 4.66653529644 7.33044367604 25.4058117762
587 33 2 5.35706707825 7.99681192064 25.7954494181
588 33 2 6.20994474054 8.5651831009 25.9446210163
589 33 2 7.14310595619 8.99973789143 25.8302945071
590 33 2 8.06717110264 9.27685341328 25.4534538727
591 33 2 8.89358960165 9.38725629746 24.839009458
592 33 2 9.54271069743 9.33686788886 24.0335275634
593 33 2 9.95104307692 9.14626455633 23.1009862461