LAMMPS input file for bananas

4320 atoms

2 atom types

0 63.4960420787 xlo xhi
0 63.4960420787 ylo yhi
0 63.4960420787 zlo zhi

Masses

 1 1
 2 1

Atoms

1 1 1 19.8128237888 8.29994696279 55.9861800655
2 1 1 15.9423042588 8.27395569321 52.0445567852
3 1 2 20.1453395526 7.85632492987 55.9899677854
4 1 2 20.5637601851 6.90850091107 55.9919209398
5 1 2 20.6875950321 5.88006179951 55.9712343343
6 1 2 20.5078977489 4.8614688405 55.911007418
7 1 2 20.0433881332 3.94228582889 55.7979436341
8 1 2 19.3387458655 3.20301560852 55.6235623648
9 1 2 18.460538076 2.70776245314 55.3849719172
10 1 2 17.491151928 2.49838913328 55.0851330936
11 1 2 16.5212852486 2.5907012365 54.7325893219
12 1 2 15.6416796641 2.97300653043 54.3406879451
13 1 2 14.9348497431 3.6071806784 53.9263636468
14 1 2 14.4675620146 4.43214217092 53.5085949001
15 1 2 14.2847493765 5.36941974196 53.1066741301
16 1 2 14.4054155829 6.33030481513 52.7384492613
17 1 2 14.8209031023 7.2239370533 52.418696927
18 1 2 15.4956822283 7.96558603553 52.1577756182
19 2 1 8.05962921331 37.6685671346 4.35380549356
20 2 1 4.74908716168 36.0536413346 8.47088176758
21 2 2 8.5920071525 37.5252491605 4.41224585814
22 2 2 9.56137429058 37.3529804221 4.73489248302
23 2 2 10.41860578 37.3035632145 5.31468738155
24 2 2 11.0840609724 37.3639716562 6.10650189155
25 2 2 11.4955791164 37.5111695512 7.04588232993
26 2 2 11.6141451439 37.714210077 8.05492477363
27 2 2 11.4274457892 37.9370565044 9.049375794
28 2 2 10.9509919101 38.1418668492 9.94631193163
29 2 2 10.2267047152 38.292443068 10.671697948
30 2 2 9.31909475716 38.3575304129 11.1671349398
31 2 2 8.30938196864 38.3136662186 11.3951832424
32 2 2 7.28809268236 38.1473184612 11.3427749558
33 2 2 6.34680839788 37.8561191662 11.0224050483
34 2 2 5.5698183727 37.4490802432 10.470992474
35 2 2 5.02643688168 36.9457720742 9.74651510836
36 2 2 4.76468540618 36.3745397255 8.92272522003
37 3 1 14.0672607813 19.92264721 8.38799318918
38 3 1 10.5372579183 19.3851870526 12.6032283461
39 3 2 14.5594454286 20.1400048934 8.5217522952
40 3 2 15.3479227374 20.7119447289 8.87479389225
41 3 2 15.9057595637 21.4459749536 9.3475176124
42 3 2 16.1853796226 22.2671768398 9.91398923214
43 3 2 16.1645653436 23.0926861959 10.5397296575
44 3 2 15.8484829434 23.8392462161 11.1848576011
45 3 2 15.2692115384 24.4307961152 11.8077246555
46 3 2 14.4828192198 24.8054038667 12.3687114334
47 3 2 13.5642525961 24.9209111405 12.8338387695
48 3 2 12.6005056108 24.7587759229 13.1778648304
49 3 2 11.6826902762 24.3257625712 13.3865858402
50 3 2 10.8977320576 23.6533252603 13.4581307169
51 3 2 10.3204468495 22.7947410195 13.4031316162
52 3 2 10.0067217061 21.820253673 13.2437548393
53 3 2 9.98842088655 20.8106713032 13.0116804335
54 3 2 10.2704815122 19.8500008103 12.7452146407
55 4 1 33.0491356798 13.6550276339 56.8045336714
56 4 1 27.6132109902 13.0880633087 57.6090616604
57 4 2 33.2536918284 14.1537559956 56.9341808516
58 4 2 33.4591668088 15.1634949764 57.0421495246
59 4 2 33.4105778279 16.1966043185 56.9807149312
60 4 2 33.1022565091 17.1633006001 56.7712244191
61 4 2 32.5522083846 17.9798537722 56.4485202372
62 4 2 31.8004717386 18.576218929 56.0577637579
63 4 2 30.905468225 18.9024207136 55.6503191388
64 4 2 29.93867789 18.9331084386 55.2790716165
65 4 2 28.9781239564 18.6698667333 54.9936071591
66 4 2 28.1012612158 18.1410711088 54.8356928378
67 4 2 27.3779162313 17.3993016063 54.8354698695
68 4 2 26.8639228328 16.5165502667 55.0087063261
69 4 2 26.5960330126 15.5776592486 55.3553599161
70 4 2 26.5885670797 14.6725876921 55.8595818401
71 4 2 26.8321084019 13.888212184 56.4911613662
72 4 2 27.2943617064 13.3004081886 57.2082794574
73 5 1 5.77231854994 13.124659253 25.5884476278
74 5 1 4.85670155895 12.4790594788 30.9979612398
75 5 2 6.07701758801 13.5680198393 25.4543898985
76 5 2 6.49273048089 14.5102324996 25.3409522302
77 5 2 6.68680851468 15.5243866011 25.4262469328
78 5 2 6.65444579035 16.5183741562 25.7167489219
79 5 2 6.41147587874 17.4019253038 26.2002290174
80 5 2 5.99292863291 18.0948361664 26.8468686007
81 5 2 5.44983731067 18.534279219 27.6119775017
82 5 2 4.84458702948 18.6805298498 28.4400673889
83 5 2 4.24522852982 18.5205871528 29.2699093821
84 5 2 3.71927553201 18.0693589253 30.0401149014
85 5 2 3.32755104105 17.3683028623 30.6947310721
86 5 2 3.11864349234 16.4816477982 31.1883406796
87 5 2 3.12447804559 15.4905394203 31.4902018272
88 5 2 3.3574066919 14.4856440563 31.5870499779
89 5 2 3.80908240273 13.5588846808 31.4843069815
90 5 2 4.45121993929 12.7950623819 31.2055868871
91 6 1 19.203073457 6.39489419149 5.74353203565
92 6 1 21.8930812601 10.9088047479 7.44836650547
93 6 2 18.7094777569 6.49130359639 5.51018658472
94 6 2 17.7503068487 6.79929468781 5.26814801838
95 6 2 16.8233987694 7.26175992801 5.28857656274
96 6 2 16.0166847503 7.85264830696 5.55971015752
97 6 2 15.4071406553 8.53420338877 6.0469356472
98 6 2 15.0537708364 9.26040470991 6.69594367758
99 6 2 14.9922300455 9.98116242147 7.43767884828
100 6 2 15.2315735983 10.646882845 8.19463392795
101 6 2 15.7534320068 11.2129888037 8.88791443117
102 6 2 16.513685309 11.6439827132 9.44442964001
103 6 2 17.4464844856 11.916682091 9.80355462757
104 6 2 18.4702534219 12.0223325782 9.92265605805
105 6 2 19.4951243529 11.9674058759 9.78097810133
106 6 2 20.4311290695 11.7730098667 9.38153427146
107 6 2 21.1963992808 11.4729646879 8.75083275285
108 6 2 21.7246286895 11.110720116 7.93646025017
109 7 1 57.2584454244 20.1117494436 2.37120361731
110 7 1 58.1736140367 17.5701042146 7.18996870829
111 7 2 57.016992308 20.6091893589 2.41164507366
112 7 2 56.4124587648 21.4235267891 2.62340851706
113 7 2 55.6649421458 22.0292266142 3.00785179935
114 7 2 54.8510413361 22.3782599008 3.54561684844
115 7 2 54.0534059623 22.4459921843 4.203370723
116 7 2 53.3532031001 22.2334288348 4.93684382094
117 7 2 52.8227191121 21.7671234201 5.69486493535
118 7 2 52.518770939 21.0967574193 6.42402537322
119 7 2 52.4775273878 20.2906118881 7.0735470151
120 7 2 52.7112124409 19.4293438239 7.5999106049
121 7 2 53.2069910737 18.5986344954 7.97082241382
122 7 2 53.928139132 17.8813798243 8.16815772741
123 7 2 54.8173906409 17.3501346435 8.18961286483
124 7 2 55.8021574454 17.060499518 8.04891515321
125 7 2 56.8011454264 17.0460529021 7.77457171848
126 7 2 57.7317642428 17.3152905529 7.40727113702
127 8 1 19.4293068181 62.3018605041 33.0559560776
128 8 1 22.0557441935 59.9476801913 28.8041737656
129 8 2 19.1857066542 61.9470348327 33.4054403994
130 8 2 18.6388221698 61.1943323517 33.8612982138
131 8 2 18.0278522452 60.3738337425 34.0254560482
132 8 2 17.4212588167 59.5459830477 33.8834784059
133 8 2 16.887104915 58.771894433 33.4488332207
134 8 2 16.4868509012 58.1077817941 32.7616642906
135 8 2 16.2697525198 57.5998350104 31.8851322781
136 8 2 16.2683713687 57.2800098612 30.8996577845
137 8 2 16.4956069969 57.1631153413 29.8955912272
138 8 2 16.9435211452 57.2454638612 28.9649776402
139 8 2 17.5840612967 57.505207361 28.1931670159
140 8 2 18.3716175896 57.9043287022 27.651034881
141 8 2 19.2471800334 58.3921068288 27.3885221817
142 8 2 20.1437171124 58.9097398558 27.4300833
143 8 2 20.9922855289 59.3957047036 27.7724571023
144 8 2 21.7283142004 59.7913647627 28.3849641826
145 9 1 42.1009647814 21.2921350384 38.592858168
146 9 1 39.671592713 20.3400050777 43.4621076946
147 9 2 41.8763251795 21.7030690002 38.2961227364
148 9 2 41.2556495901 22.3565915505 37.785123617
149 9 2 40.4208509796 22.8201849403 37.383075784
150 9 2 39.4436631819 23.0643555063 37.1403109719
151 9 2 38.4087984248 23.0796093893 37.0926426938
152 9 2 37.4062260367 22.8773178738 37.258101935
153 9 2 36.5229719828 22.4886809261 37.6352936772
154 9 2 35.8351866812 21.9618834004 38.2035240504
155 9 2 35.4012040956 21.3577031184 38.9246865241
156 9 2 35.2562247505 20.7439711332 39.7467352155
157 9 2 35.4091072975 20.1893891101 40.6084287327
158 9 2 35.8415610727 19.7572673535 41.4449121641
159 9 2 36.5098132422 19.4997542418 42.1936284298
160 9 2 37.3485985785 19.4530830421 42.8000201925
161 9 2 38.2771082119 19.6342693446 43.222502613
162 9 2 39.2063551427 20.0395601375 43.4362536972
163 10 1 55.546268809 54.8880448349 27.5738152587
164 10 1 54.821256072 58.8356583263 31.3696939864
165 10 2 56.0556950153 54.669825158 27.5581085415
166 10 2 57.074869481 54.4873122759 27.5203929279
167 10 2 58.1031247865 54.6108171943 27.4906007647
168 10 2 59.0512916447 55.0284646202 27.4901030195
169 10 2 59.8375006166 55.701568957 27.5376005521
170 10 2 60.3946442913 56.5681603934 27.6474195809
171 10 2 60.6764939479 57.5486332864 27.8282058866
172 10 2 60.6619131793 58.5530020024 28.0821367723
173 10 2 60.3567844191 59.4891028674 28.4047226081
174 10 2 59.7934727742 60.2709946397 28.7852160488
175 10 2 59.0278760312 60.826791824 29.2075916258
176 10 2 58.1343297226 61.1052168427 29.652006426
177 10 2 57.1988316421 61.0802738494 30.0966087197
178 10 2 56.311203375 60.7536181815 30.5195296877
179 10 2 55.5569033012 60.15440548 30.9008767058
180 10 2 55.0092372921 59.3366342313 31.2245465042
181 11 1 50.7880933578 26.8176476036 7.89524367167
182 11 1 51.2048116505 21.8710445538 10.3191774978
183 11 2 50.3117869412 27.084987808 7.99033836511
184 11 2 49.32505585 27.3805380406 8.10197090846
185 11 2 48.2895004404 27.384269657 8.13454513029
186 11 2 47.2961605948 27.091419287 8.10348674717
187 11 2 46.4322283598 26.5242562155 8.03002141754
188 11 2 45.7731006238 25.730052597 7.93924007968
189 11 2 45.375506893 24.7767747252 7.85781197971
190 11 2 45.2723385478 23.7468880866 7.81155384114
191 11 2 45.4696508815 22.7298408522 7.8230767395
192 11 2 45.9461111769 21.8139109156 7.90972516322
193 11 2 46.654943126 21.0781595989 8.0819961099
194 11 2 47.5281903658 20.5852254247 8.34258231303
195 11 2 48.4829105188 20.3756147818 8.68612680649
196 11 2 49.4287351694 20.4640098767 9.09971119776
197 11 2 50.2761067031 20.8379304891 9.56403314481
198 11 2 50.9444412441 21.4588715113 10.055165713
199 12 1 20.4692926029 6.88823302432 12.5867991366
200 12 1 17.1012738218 4.43932291549 16.2168514544
201 12 2 20.8416475436 6.55241241984 12.3502448979
202 12 2 21.5824122822 5.8621956312 12.1304304356
203 12 2 22.3132969883 5.13264466714 12.2141737841
204 12 2 22.9574503192 4.4141755649 12.591425221
205 12 2 23.4459262653 3.75619427966 13.2253825456
206 12 2 23.7239683947 3.20259346372 14.0558455021
207 12 2 23.7560007551 2.78775176862 15.0047028713
208 12 2 23.5288705274 2.53340032286 15.9830520998
209 12 2 23.0530468697 2.44664199772 16.89930253
210 12 2 22.3616666814 2.51930399944 17.667523644
211 12 2 21.5075142636 2.72868279756 18.2152774001
212 12 2 20.5582101712 3.03961349104 18.4902207672
213 12 2 19.5900477797 3.40767499503 18.464876652
214 12 2 18.6810393483 3.78323890396 18.1391383627
215 12 2 17.9038054109 4.11599298812 17.5402793333
216 12 2 17.3189556082 4.35952701891 16.7204672235
217 13 1 27.3653595011 48.3702927958 39.6517675812
218 13 1 24.3478698213 44.973711224 42.7943748935
219 13 2 27.3281994811 48.9070351161 39.7855898609
220 13 2 27.0273558831 49.8688107488 40.0262779848
221 13 2 26.4502723695 50.6992499764 40.2516561534
222 13 2 25.6488671681 51.3218573416 40.4603659592
223 13 2 24.6955048287 51.679080706 40.6525682716
224 13 2 23.6764003882 51.7375569737 40.8299285737
225 13 2 22.6837611004 51.4911530478 40.9954651583
226 13 2 21.807381991 50.9615248466 41.1532740184
227 13 2 21.1264612813 50.1961434238 41.3081555084
228 13 2 20.7023816818 49.2639681093 41.4651768047
229 13 2 20.5731155223 48.2491610504 41.6292100461
230 13 2 20.7497636756 47.2434160569 41.8044882514
231 13 2 21.2155437423 46.3376009558 41.9942194907
232 13 2 21.9273197221 45.6134752313 42.2002944792
233 13 2 22.8195337446 45.1362378666 42.4231142425
234 13 2 23.8101814942 44.9485846309 42.661553565
235 14 1 35.4077005716 10.7208795067 29.0881501938
236 14 1 31.6848923529 13.1378922967 25.7992690465
237 14 2 35.1965017939 10.3692439835 29.461150359
238 14 2 34.6583458556 9.89206673938 30.2068983559
239 14 2 33.9656532605 9.67924336255 30.9473935889
240 14 2 33.1675259348 9.74176722804 31.6050664174
241 14 2 32.3226758983 10.0655345456 32.1098962414
242 14 2 31.4940738214 10.6126298827 32.4057936924
243 14 2 30.7432094161 11.3247820545 32.4557130291
244 14 2 30.1244868134 12.128675387 32.245028758
245 14 2 29.6802657725 12.9426322446 31.782868708
246 14 2 29.4370007012 13.6840577283 31.1012820529
247 14 2 29.4028294081 14.2769679799 30.2523181152
248 14 2 29.5668313627 14.6589159076 29.3032822094
249 14 2 29.9000230725 14.7866830718 28.3306009422
250 14 2 30.3579998513 14.6402189299 27.4128561322
251 14 2 30.8849831871 14.2244683899 26.6236222863
252 14 2 31.4189048049 13.5689210956 26.0247604808
253 15 1 1.14120666242 14.2171055725 20.2687693558
254 15 1 5.65666475693 15.6093441258 23.1306395605
255 15 2 1.21528470947 14.1763130648 19.7208368761
256 15 2 1.45185792433 14.3124651063 18.7213641417
257 15 2 1.81133752489 14.706188453 17.8329912728
258 15 2 2.27843776664 15.3136834645 17.1356985176
259 15 2 2.82806357125 16.0716657846 16.692049683
260 15 2 3.42759787591 16.9031345412 16.5414896101
261 15 2 4.03987459143 17.7243907698 16.6967488829
262 15 2 4.62656619192 18.4526663506 17.1426834694
263 15 2 5.15167716633 19.0136681014 17.8376550597
264 15 2 5.58482491312 19.3483494025 18.7173262865
265 15 2 5.90400903313 19.4182921381 19.7005249046
266 15 2 6.09761660718 19.2092084052 20.6966424233
267 15 2 6.16548068262 18.7322428178 21.613892829
268 15 2 6.11889549062 18.0229567046 22.3676786347
269 15 2 5.97958700718 17.1380867897 22.8883017144
270 15 2 5.7777326885 16.150373791 23.1273161019
271 16 1 33.3768594555 56.3618169321 35.4642703143
272 16 1 29.8881174121 55.0221407328 39.5326775822
273 16 2 33.3473665703 56.8890757708 35.2954216398
274 16 2 33.0618343509 57.8290350488 34.9661832483
275 16 2 32.4982747669 58.6425858342 34.659612333
276 16 2 31.7052002728 59.264829048 34.4202460012
277 16 2 30.7520429936 59.6483027853 34.2864958421
278 16 2 29.7228261723 59.7673083405 34.287146813
279 16 2 28.7085056759 59.6202525762 34.4387335674
280 16 2 27.7986796114 59.229793133 34.7440333655
281 16 2 27.0734216973 58.6407732465 35.1918129346
282 16 2 26.5959827587 57.9161344057 35.7578523515
283 16 2 26.4070255834 57.1311794049 36.407152624
284 16 2 26.5209186175 56.3667086953 37.0971257554
285 16 2 26.92442632 55.7016556396 37.7814765269
286 16 2 27.5779155468 55.2058919471 38.4144221824
287 16 2 28.4189680063 54.9338590541 38.9548654049
288 16 2 29.3680695192 54.9196059325 39.3701402269
289 17 1 23.1906255777 31.6803583004 22.1516410837
290 17 1 25.4287546867 26.6370817795 22.4239113279
291 17 2 23.5140487626 32.0898673442 22.3389413094
292 17 2 24.1413954478 32.7150611665 22.8765460269
293 17 2 24.7627215525 33.1038991322 23.6088089028
294 17 2 25.338707562 33.2153847709 24.4627767478
295 17 2 25.8341665903 33.0338015359 25.3544032903
296 17 2 26.2212515705 32.5701453247 26.1962097687
297 17 2 26.4819934404 31.8611222328 26.9052583874
298 17 2 26.6099389747 30.9658028911 27.4107118747
299 17 2 26.6107389792 29.9602383357 27.660290111
300 17 2 26.5016332347 28.9305281592 27.6250353219
301 17 2 26.3098791376 27.9649727632 27.3019515022
302 17 2 26.0702672605 27.1460250123 26.7142774932
303 17 2 25.8219502848 26.5427748763 25.909368825
304 17 2 25.6048743383 26.2046520638 24.9543813862
305 17 2 25.4561380126 26.1569206365 23.9301503441
306 17 2 25.4066109256 26.3983762576 22.9238222357
307 18 1 38.8262461762 5.82383868473 55.1946615451
308 18 1 35.948758294 10.4564410503 54.3131572221
309 18 2 39.0808629741 5.61828126362 54.7471148762
310 18 2 39.3444923575 5.25817934793 53.8120875131
311 18 2 39.3169988019 4.971625224 52.8168082308
312 18 2 39.0067638745 4.80075124383 51.843152037
313 18 2 38.4479402626 4.77714582352 50.9710230522
314 18 2 37.6973388477 4.91897424351 50.2710714636
315 18 2 36.8292505455 5.2293229319 49.7982539486
316 18 2 35.9286748875 5.69591814472 49.5868245212
317 18 2 35.0835725408 6.29224468493 49.6472123695
318 18 2 34.3768479285 6.97996269171 49.9650712637
319 18 2 33.8787927129 7.71240221636 50.5025871761
320 18 2 33.6406788986 8.43881706333 51.2019249291
321 18 2 33.6900855265 9.10901017036 51.9904997167
322 18 2 34.0283849172 9.6779089365 52.7875930157
323 18 2 34.6306175884 10.1096734692 53.5117098634
324 18 2 35.4477672447 10.3809632949 54.0880069057
325 19 1 45.1789808708 11.3727500757 15.5717469644
326 19 1 42.9184358231 12.7837045214 20.4108723711
327 19 2 45.7317527762 11.4107476329 15.5522278894
328 19 2 46.7262049303 11.6971526492 15.6020986328
329 19 2 47.5950740422 12.2345068168 15.7746297199
330 19 2 48.2641135143 12.9677368331 16.0716313012
331 19 2 48.6772906863 13.8239158351 16.4835683743
332 19 2 48.8018940629 14.7189104885 16.9904298742
333 19 2 48.6315148789 15.5650495161 17.5635526279
334 19 2 48.1866312411 16.2791147005 18.1682339261
335 19 2 47.5127416035 16.789926002 18.7668945828
336 19 2 46.6762177051 17.044829429 19.3225041772
337 19 2 45.7582549628 17.0144963089 19.8019562778
338 19 2 44.8474717266 16.6955965179 20.1790860051
339 19 2 44.0318319539 16.1111020128 20.4370548904
340 19 2 43.3906275293 15.308192999 20.5698856575
341 19 2 42.9872510219 14.3539575805 20.5830070348
342 19 2 42.8634176219 13.3292768585 20.492758942
343 20 1 48.6318305209 53.5185185581 61.1612689749
344 20 1 53.1729403138 56.4182323796 62.3810938245
345 20 2 48.3165909012 53.73586042 60.7603100177
346 20 2 47.7458578534 54.3380443271 60.1397551521
347 20 2 47.2559194082 55.1515935034 59.7255715348
348 20 2 46.9046909118 56.1091383508 59.543372688
349 20 2 46.7374446698 57.1301844507 59.597627342
350 20 2 46.7826834966 58.1284494152 59.8712521223
351 20 2 47.0495427608 59.0197272958 60.327168654
352 20 2 47.5269577202 59.7295637309 60.9116831561
353 20 2 48.1846720441 60.2000422615 61.5593804863
354 20 2 48.9759955962 60.3950632621 62.1990865566
355 20 2 49.8420601165 60.3036343247 62.7603556607
356 20 2 50.7171849054 59.9408721875 63.1798914123
357 20 2 51.534863444 59.3466248848 63.4073160413
358 20 2 52.2338252856 58.5818397048 63.409762193
359 20 2 52.7636206931 57.7230080077 63.1748686995
360 20 2 53.0892189978 56.855193242 62.7119072674
361 21 1 6.94230767465 53.2129599926 10.7998741594
362 21 1 3.96031094456 49.953602878 7.48290600116
363 21 2 6.66024902239 53.6292041405 11.0334663555
364 21 2 6.06293705737 54.4478154359 11.249206882
365 21 2 5.40836111325 55.2464695839 11.164756326
366 21 2 4.73930436075 55.944007095 10.7915881418
367 21 2 4.09986985754 56.4684849907 10.1674916234
368 21 2 3.53146067244 56.7637342139 9.35312751221
369 21 2 3.06900610637 56.7944792886 8.42649893188
370 21 2 2.73777797992 56.5495535845 7.47584161248
371 21 2 2.55108717444 56.0429171264 6.59158143942
372 21 2 2.5090703808 55.3123841747 5.85809237567
373 21 2 2.59867764033 54.4161765566 5.34600600058
374 21 2 2.79486181377 53.4276169026 5.10577363016
375 21 2 3.06286156098 52.4284454844 5.16306781452
376 21 2 3.36136974421 51.5013698073 5.5164423535
377 21 2 3.64629846334 50.722526043 6.137464114
378 21 2 3.87479755007 50.1545394202 6.973304634
379 22 1 34.1271517043 48.6092810806 63.2476377283
380 22 1 37.6336215429 49.9352489779 59.1899943892
381 22 2 34.106909379 48.0693010808 63.3717080155
382 22 2 34.0405006082 47.0353572774 63.371395528
383 22 2 33.9579414173 46.0478986457 63.0688076201
384 22 2 33.8851957781 45.191828625 62.4897547704
385 22 2 33.8473331834 44.5400749336 61.6852464977
386 22 2 33.8662436297 44.1469424027 60.7268419801
387 22 2 33.9586424026 44.0431632356 59.7001276272
388 22 2 34.1345465231 44.2330958503 58.6969161074
389 22 2 34.3963617231 44.6943276206 57.8068778688
390 22 2 34.7386631689 45.3797177276 57.1093679171
391 22 2 35.1486899211 46.2216939189 56.6661928197
392 22 2 35.6075080591 47.1384115392 56.5159772014
393 22 2 36.0917364583 48.0412134517 56.6706432137
394 22 2 36.5756779166 48.8427108991 57.1143238623
395 22 2 37.0336613857 49.4647487554 57.8048092413
396 22 2 37.4423818186 49.8455291567 58.6773938532
397 23 1 40.532640731 4.71726530266 14.1703663528
398 23 1 36.8232934619 1.00724522231 15.9008243565
399 23 2 40.5172271238 5.20405599546 14.4352792256
400 23 2 40.2585956692 6.10268332566 14.8814055567
401 23 2 39.7198929382 6.9102113865 15.2435489119
402 23 2 38.9465958761 7.54753906938 15.5067505259
403 23 2 38.0055640746 7.95107857526 15.6650699086
404 23 2 36.9789456984 8.07855127254 15.7221263049
405 23 2 35.9566898999 7.91284128141 15.6907688103
406 23 2 35.0283481941 7.46355554045 15.5919052102
407 23 2 34.2749120775 6.76614815994 15.452596291
408 23 2 33.7614308696 5.87868887443 15.3035893219
409 23 2 33.5310826413 4.87657014163 15.1765155235
410 23 2 33.6012386492 3.84563532142 15.1010069662
411 23 2 33.9618799919 2.87435428304 15.1019956869
412 23 2 34.5765108063 2.04575961294 15.1974411998
413 23 2 35.3854847675 1.42987841649 15.396693535
414 23 2 36.3114416924 1.07734953444 15.6996410084
415 24 1 12.0482470165 29.2339984504 16.9263717792
416 24 1 7.86479928094 32.0399353519 19.1942946635
417 24 2 12.1116152551 28.7163980233 17.1146690237
418 24 2 12.2207660917 27.8532624186 17.6772817093
419 24 2 12.2937610892 27.1895464321 18.4694955887
420 24 2 12.305702466 26.7800811124 19.4211497101
421 24 2 12.2372573149 26.6565232397 20.4475505697
422 24 2 12.0764197458 26.8244698944 21.4571916983
423 24 2 11.8196051905 27.2629482984 22.3600942316
424 24 2 11.4719771267 27.9263274276 23.0760082428
425 24 2 11.0469764406 28.7484771581 23.541727309
426 24 2 10.5650963261 29.6487958499 23.7168496081
427 24 2 10.0520143851 30.5395569712 23.5874604363
428 24 2 9.53625218237 31.3339051371 23.1674004969
429 24 2 9.0465755816 31.953772746 22.4970043563
430 24 2 8.60937281347 32.3369956327 21.639424057
431 24 2 8.24624925907 32.4429791659 20.6748729769
432 24 2 7.97205817716 32.2563983404 19.6933145949
433 25 1 16.0317482012 48.6385948592 11.5357943046
434 25 1 10.5528176992 49.3277364626 11.3796038266
435 25 2 16.3249084906 49.107019662 11.5807035118
436 25 2 16.7389979471 50.0518093832 11.483996139
437 25 2 16.9373408573 51.0193955742 11.1711270543
438 25 2 16.8909358608 51.9318864603 10.6826017528
439 25 2 16.5930897147 52.7164120566 10.0749363241
440 25 2 16.0600273649 53.3117660723 9.41550616231
441 25 2 15.3294130856 53.6739847007 8.77640487824
442 25 2 14.4569174813 53.7803538024 8.22787316005
443 25 2 13.5111432601 53.6314792385 7.83189652196
444 25 2 12.5673722802 53.251231648 7.63655549042
445 25 2 11.7007038096 52.6845707032 7.67164319257
446 25 2 10.9792094288 51.9934471549 7.94594979235
447 25 2 10.4577284879 51.251156188 8.44646129059
448 25 2 10.1728696467 50.5356567605 9.13954571618
449 25 2 10.1396740928 49.9224658534 9.97401859041
450 25 2 10.3502445781 49.4777752994 10.8858082554
451 26 1 43.6178642433 60.1505770882 20.733003394
452 26 1 47.6534189441 56.5444321645 19.624848122
453 26 2 43.1042507684 59.945273537 20.6951452596
454 26 2 42.2191864854 59.4853706023 20.4147874225
455 26 2 41.5039709212 58.9487064614 19.8914249212
456 26 2 41.0261143816 58.3665356261 19.1799614596
457 26 2 40.8314925313 57.7742604216 18.3524456418
458 26 2 40.9401649506 57.2082041595 17.4915039337
459 26 2 41.3445467573 56.7023003651 16.682809482
460 26 2 42.0100999492 56.2849998266 16.0072732353
461 26 2 42.8784814502 55.9766773825 15.533669128
462 26 2 43.872860926 55.7877748093 15.3123655197
463 26 2 44.9049236637 55.7178490814 15.3707342536
464 26 2 45.8829202219 55.7556127516 15.7106557867
465 26 2 46.7200291466 55.8799627721 16.3083477908
466 26 2 47.3422705154 56.0619039806 17.116532848
467 26 2 47.6952490092 56.2671919319 18.0687476616
468 26 2 47.7491119003 56.4594541878 19.0854010072
469 27 1 26.5604625355 11.4905492862 22.8890189277
470 27 1 29.8225855302 7.74822767933 20.4658859104
471 27 2 26.0203974862 11.4384005107 22.7750371933
472 27 2 25.0862162276 11.3345290218 22.3391861854
473 27 2 24.3224938192 11.214575566 21.6494113942
474 27 2 23.7967273304 11.070378308 20.7683740731
475 27 2 23.5547247845 10.8959851702 19.7761685438
476 27 2 23.6164298799 10.6881963489 18.763021813
477 27 2 23.9741041752 10.4468559676 17.821069622
478 27 2 24.5930324275 10.1748662847 17.0359585203
479 27 2 25.4146867939 9.87792316071 16.4790394109
480 27 2 26.3620614882 9.56399689553 16.2008641069
481 27 2 27.3466916523 9.24260575696 16.2265776684
482 27 2 28.2767166914 8.9239484161 16.5536264978
483 27 2 29.0652531222 8.61797436565 17.1519910932
484 27 2 29.6383137697 8.33347705033 17.9669222455
485 27 2 29.9415515006 8.07729236784 18.9239312832
486 27 2 29.9452128194 7.85367559506 19.935579515
487 28 1 27.0725287639 43.1480175949 7.29209930843
488 28 1 32.5045193406 42.2059781903 6.93991867833
489 28 2 26.9308482763 43.6815284363 7.3438140031
490 28 2 26.8258303787 44.6764628835 7.61312181611
491 28 2 26.946936944 45.5960740461 8.07474776929
492 28 2 27.295840056 46.3650928024 8.67502002594
493 28 2 27.853448752 46.921976126 9.34762950937
494 28 2 28.5816491132 47.2245165682 10.019673798
495 28 2 29.4267782465 47.2536893543 10.6183019863
496 28 2 30.3245155137 47.0153864407 11.0773548499
497 28 2 31.2057451858 46.5398794787 11.3433950824
498 28 2 32.002856157 45.879060635 11.3805779629
499 28 2 32.6559045162 45.1017127588 11.1739185062
500 28 2 33.1180772744 44.2872400092 10.7306573045
501 28 2 33.3599592435 43.5184303783 10.0796005668
502 28 2 33.372214152 42.873909787 9.26849450979
503 28 2 33.1664356211 42.4209755423 8.35967341769
504 28 2 32.7740904375 42.2094623681 7.42437803911
505 29 1 51.852485135 7.59205684949 49.3032270947
506 29 1 53.2282887735 4.37215577441 53.5760941037
507 29 2 51.9701896042 8.12987831088 49.3686130385
508 29 2 52.0775251366 9.10717247609 49.6954542987
509 29 2 52.0445263713 9.96939191082 50.2689861104
510 29 2 51.8910425419 10.6371606744 51.0461460705
511 29 2 51.6479047739 11.0488264852 51.9653116144
512 29 2 51.3541159096 11.1660801612 52.9519167481
513 29 2 51.0532955033 10.9774473995 53.9252485392
514 29 2 50.7897040155 10.4993346284 54.805803885
515 29 2 50.6042085904 9.77453360562 55.5225360077
516 29 2 50.5305581247 8.86832106334 56.0193301786
517 29 2 50.5923071462 7.86250890907 56.2601184255
518 29 2 50.800668881 6.84798728869 56.2321670318
519 29 2 51.1534931986 5.91644019264 55.9472371808
520 29 2 51.6354625899 5.15198870527 55.4405129556
521 29 2 52.2194883177 4.62352359275 54.7673944034
522 29 2 52.8691794824 4.37842609396 53.9984479698
523 30 1 52.5097703574 49.5255591819 25.4981539155
524 30 1 47.2365841781 51.1625963685 25.6759398227
525 30 2 52.8482496943 49.7894905745 25.8490863115
526 30 2 53.3840716732 50.4754991946 26.4109911
527 30 2 53.7421318963 51.3578924275 26.8191884424
528 30 2 53.8785888895 52.3582172115 27.0519540468
529 30 2 53.7697997208 53.3872713394 27.1035537552
530 30 2 53.4144749905 54.3532340007 26.9847661969
531 30 2 52.8337963561 55.1700350039 26.7219003451
532 30 2 52.0694858815 55.7651998436 26.3543975245
533 30 2 51.1800031818 56.0864555584 25.9312364396
534 30 2 50.2352169858 56.1064952718 25.5064688972
535 30 2 49.3100367885 55.8254671403 25.1342931283
536 30 2 48.4775850502 55.2709608502 24.8641137641
537 30 2 47.8025322802 54.4954928907 24.7360387365
538 30 2 47.3352024923 53.5717198169 24.7772235467
539 30 2 47.106986306 52.5858157984 24.9993961141
540 30 2 47.1274797748 51.6296180744 25.3977878077
541 31 1 5.24805494244 38.9319019446 24.33091199
542 31 1 8.53133851918 39.275878716 28.760327301
543 31 2 4.81892675915 39.2829437394 24.3304132946
544 31 2 3.98095667203 39.8530329645 24.5454817014
545 31 2 3.17018744965 40.2793481023 25.0295877668
546 31 2 2.46838086191 40.5388111798 25.7462441949
547 31 2 1.94736702577 40.6235523435 26.637767346
548 31 2 1.66249728211 40.5416271754 27.6305349458
549 31 2 1.64759906893 40.3162824481 28.6416965591
550 31 2 1.91189264081 39.9838372436 29.5867251857
551 31 2 2.43915066732 39.5903725664 30.3871216702
552 31 2 3.18917731085 39.1875311827 30.9775696906
553 31 2 4.10147196975 38.8278105203 31.3118891659
554 31 2 5.10074374646 38.5597776688 31.3672454478
555 31 2 6.10377401162 38.4236426186 31.1462306373
556 31 2 7.02700155968 38.4475932283 30.6766273218
557 31 2 7.79413898948 38.6452259763 30.0088762664
558 31 2 8.34312609692 39.0143066784 29.2114788734
559 32 1 23.8417304956 55.7006032129 57.3608930323
560 32 1 23.0163841112 55.007801735 51.9426995585
561 32 2 23.7464557323 55.2510413512 57.6710517659
562 32 2 23.3647521305 54.4058675051 58.133040447
563 32 2 22.755547495 53.6101670391 58.3960622934
564 32 2 21.9811640477 52.9224539875 58.42489017
565 32 2 21.1189796178 52.3913996205 58.2056430963
566 32 2 20.2543748594 52.0513961878 57.7470514604
567 32 2 19.4729510328 51.9194221571 57.0796612674
568 32 2 18.8527276791 51.9934946722 56.253049953
569 32 2 18.4570313468 52.2528502848 55.3313075324
570 32 2 18.3287235467 52.6598374878 54.3871949669
571 32 2 18.4862940395 53.1633485489 53.4955121969
572 32 2 18.9221755435 53.7034778442 52.7262803268
573 32 2 19.6034334724 54.2169820957 52.1383593889
574 32 2 20.4747678344 54.6430448269 51.7740834087
575 32 2 21.463553679 54.9288196223 51.6554017714
576 32 2 22.4864606669 55.0342469366 51.7818785943
577 33 1 37.7506967127 49.5483370098 3.24431330039
578 33 1 36.9534596751 44.215925584 4.44755581703
579 33 2 38.004144843 49.841845986 3.64054317577
580 33 2 38.3136777823 50.2944631368 4.51962058162
581 33 2 38.3966164564 50.5758636138 5.51329304227
582 33 2 38.2582835952 50.6477543402 6.53757120474
583 33 2 37.9241702373 50.4909384929 7.50567608817
584 33 2 37.4376122907 50.1070652417 8.33594875592
585 33 2 36.8558405801 49.5184794319 8.95929330942
586 33 2 36.2447644101 48.7661849114 9.32547479465
587 33 2 35.6729641087 47.9061071396 9.40769798393
588 33 2 35.2054401134 47.0039957309 9.20504968929
589 33 2 34.897688355 46.1294315537 8.74258199714
590 33 2 34.790641952 45.3494846196 8.06902883751
591 33 2 34.9069402662 44.7226008316 7.25236401664
592 33 2 35.2488653854 44.2932747959 6.37360558617
593 33 2 35.7981341171 44.0879942577 5.51943126429
594 33 2 36.5175644528 44.1128258137 4.77427799342