LAMMPS input file for bananas

648 atoms

2 atom types

0 67.4746132241 xlo xhi
0 67.4746132241 ylo yhi
0 67.4746132241 zlo zhi

Masses

 1 1
 2 1

Atoms

1 1 1 24.8406608008 40.1320474897 49.8438444049
2 1 1 21.6955355445 36.2696926449 52.1948095476
3 1 2 24.7460565682 40.6501920072 50.0169254545
4 1 2 24.344988745 41.5637501326 50.2948722549
5 1 2 23.6828219379 42.3312557876 50.5074009827
6 1 2 22.8167486662 42.8800718461 50.6537440492
7 1 2 21.8225461254 43.1574932391 50.7391662347
8 1 2 20.7876696157 43.135550661 50.7744848403
9 1 2 19.8032815903 42.8135597795 50.7750837648
10 1 2 18.9559428234 42.2181836078 50.7595113678
11 1 2 18.319722989 41.4010023544 50.7477899142
12 1 2 17.9494497177 40.43381224 50.7595906817
13 1 2 17.8757114343 39.4020817644 50.8124410588
14 1 2 18.1020694326 38.397161839 50.9201270434
15 1 2 18.6047332876 37.5079597774 51.0914367441
16 1 2 19.33472919 36.8128360031 51.3293594037
17 1 2 20.2223635731 36.3724620346 51.6308129505
18 1 2 21.1835752033 36.2242906919 51.9869249081
19 2 1 57.9239184866 3.51958885373 44.8132415052
20 2 1 61.6273947746 7.44522746037 45.9133596084
21 2 2 57.4440981954 3.56512406992 45.0872484101
22 2 2 56.687866142 3.67143986898 45.78689711
23 2 2 56.171594199 3.81266651317 46.6735856613
24 2 2 55.939650189 3.99480098055 47.6664236557
25 2 2 56.0104873927 4.22011178158 48.674845891
26 2 2 56.3749626591 4.48693219991 49.6068667682
27 2 2 56.997169741 4.78981220219 50.3774641485
28 2 2 57.8177119034 5.12001517121 50.9163285379
29 2 2 58.7591155283 5.46631418866 51.1742713157
30 2 2 59.7328913041 5.8160152918 51.1277079403
31 2 2 60.6475994197 6.15611444108 50.780807518
32 2 2 61.4171836762 6.47448274923 50.165112818
33 2 2 61.9688149194 6.76097194613 49.3366653648
34 2 2 62.2495289179 7.00833932412 48.3708976379
35 2 2 62.23105369 7.2129078611 47.3557579181
36 2 2 61.9123863005 7.37490135587 46.3836944049
37 3 1 56.6546331921 31.6404803894 15.143432229
38 3 1 61.617985059 30.8765198476 12.8811021331
39 3 2 56.5601396774 31.3513691243 15.6069690708
40 3 2 56.4597350467 30.6301581695 16.3434960153
41 3 2 56.4803156345 29.7329676248 16.8605297057
42 3 2 56.6369787825 28.7424857891 17.1195676606
43 3 2 56.9324188402 27.7499038225 17.1056219412
44 3 2 57.3566815932 26.8466042981 16.8285851986
45 3 2 57.8880715216 26.1158323062 16.3223290273
46 3 2 58.495129198 25.6251082356 15.641616801
47 3 2 59.1394985986 25.4200737526 14.8571123666
48 3 2 59.7794229916 25.5203318767 14.0489395195
49 3 2 60.3735507772 25.9176602989 13.2993792682
50 3 2 60.8847044026 26.5767607896 12.6853704853
51 3 2 61.2832688406 27.4384763899 12.2714974563
52 3 2 61.5498907965 28.4251831626 12.1041034649
53 3 2 61.6772426284 29.4478650823 12.2070669203
54 3 2 61.6706902111 30.4142272354 12.5796250041
55 4 1 13.0607496339 35.2917338104 1.25999658452
56 4 1 13.5760027366 36.1716090913 6.67266400984
57 4 2 13.2600128744 35.6950039109 0.935885278626
58 4 2 13.5031112422 36.5872797477 0.469574989342
59 4 2 13.5726301719 37.592259299 0.228989264775
60 4 2 13.4779325873 38.6234994344 0.245554946733
61 4 2 13.2433486215 39.5921635509 0.527261289376
62 4 2 12.9059580923 40.4151184208 1.05793179348
63 4 2 12.5122109308 41.0225112153 1.79869858341
64 4 2 12.1136935886 41.3641361106 2.69154494756
65 4 2 11.7624272868 41.4140102051 3.66459316376
66 4 2 11.5061266382 41.1727416821 4.63865566092
67 4 2 11.383850787 40.6674743786 5.53445242321
68 4 2 11.4224434364 39.9494138104 6.27983681991
69 4 2 11.6340862285 39.0891601403 6.81637127619
70 4 2 12.0151884715 38.1702734577 7.1046534574
71 4 2 12.5467144062 37.2816578489 7.1279075217
72 4 2 13.1959181856 36.5094583993 6.89351312306
73 5 1 6.77727334681 61.321196586 18.34308061
74 5 1 7.65000057259 65.8519282741 15.3351822595
75 5 2 7.03743942763 61.3097995854 18.8325338462
76 5 2 7.71183002094 61.3450750738 19.6178052888
77 5 2 8.57481093251 61.4661087984 20.1775490292
78 5 2 9.54616853127 61.6800209814 20.4663469938
79 5 2 10.5358113942 61.9854666102 20.4634759593
80 5 2 11.4519815217 62.3727580263 20.1747963314
81 5 2 12.2096174505 62.8247478887 19.6322180101
82 5 2 12.7381070223 63.3183920369 18.8907920202
83 5 2 12.9877231984 63.8268498075 18.0236929882
84 5 2 12.9341563382 64.3219303771 17.1155497769
85 5 2 12.5807298559 64.7766621626 16.2547321447
86 5 2 11.9580973147 65.1677510956 15.5252964476
87 5 2 11.1214485643 65.4777037177 14.9993244792
88 5 2 10.1454795643 65.6964215888 14.7303537093
89 5 2 9.11758436017 65.8221216909 14.7484977104
90 5 2 8.12988971473 65.8614989378 15.0577015119
91 6 1 47.943790365 49.1646203538 57.7752302365
92 6 1 50.5316633408 45.7127846981 61.1993182894
93 6 2 48.118292851 49.6904991287 57.7947532526
94 6 2 48.4143631966 50.6460478186 58.0630205126
95 6 2 48.6637608512 51.4882018039 58.611906426
96 6 2 48.862549089 52.1379324345 59.3935915387
97 6 2 49.0114038853 52.5337491295 60.3390383456
98 6 2 49.1155523065 52.6373038226 61.364283586
99 6 2 49.1842960984 52.4368861252 62.3780909191
100 6 2 49.2301638961 51.9484906479 63.290266491
101 6 2 49.2677693248 51.2143592016 64.0198794859
102 6 2 49.3124790678 50.299130746 64.5026384154
103 6 2 49.379012299 49.2839499915 64.6967508465
104 6 2 49.480099131 48.2590716153 64.5867324956
105 6 2 49.6253203525 47.3156341664 64.1848185148
106 6 2 49.8202342052 46.5373534116 63.5298483416
107 6 2 50.0658697881 45.9928922172 62.6837257504
108 6 2 50.3586332625 45.7296024 61.725776748
109 7 1 46.9438205358 54.8796371441 8.47631935882
110 7 1 43.4078065644 56.2434638456 12.4729700627
111 7 2 47.4299172425 54.6779689553 8.65073462478
112 7 2 48.3377639172 54.4925418172 9.11347587302
113 7 2 49.1679123813 54.5608887739 9.72900856279
114 7 2 49.8393313775 54.8661692745 10.45612521
115 7 2 50.2854567513 55.3699478997 11.2434482178
116 7 2 50.460258317 56.0156974876 12.0341125926
117 7 2 50.3424351942 56.7339511959 12.7709487978
118 7 2 49.9373572361 57.4486339291 13.4016933656
119 7 2 49.2765756052 58.0839960616 13.8837523536
120 7 2 48.4149471002 58.5715174966 14.1880834904
121 7 2 47.4256343355 58.8561528034 14.3018431799
122 7 2 46.3934374705 58.9013482307 14.2295571068
123 7 2 45.4070652562 58.6923733308 13.9927077515
124 7 2 44.5510498409 58.2376635385 13.6277764093
125 7 2 43.8980422442 57.5680513395 13.1829181704
126 7 2 43.5021907153 56.7339561002 12.7135729138
127 8 1 6.8751788247 27.6551811725 10.0383621586
128 8 1 8.6046770095 32.8792597933 9.804966528
129 8 2 6.36085572193 27.568812602 9.85023197071
130 8 2 5.34649082429 27.5864342636 9.64178149084
131 8 2 4.34361352248 27.8444488132 9.62270583055
132 8 2 3.44297693184 28.3311465952 9.77979584203
133 8 2 2.72601562786 29.0139750453 10.0837860843
134 8 2 2.25742344294 29.8425056336 10.4920221675
135 8 2 2.07925706713 30.7530300791 10.952348408
136 8 2 2.20710286916 31.674366923 11.4078614617
137 8 2 2.62865630582 32.5343492304 11.8020966733
138 8 2 3.30484339667 33.2664021119 12.0841744426
139 8 2 4.17338204951 33.815610568 12.2134375516
140 8 2 5.15445864602 34.1437246152 12.1631567905
141 8 2 6.15800250592 34.2326455092 11.9229671426
142 8 2 7.09189521188 34.0860753219 11.4998124841
143 8 2 7.87036657174 33.7291795228 10.9173126973
144 8 2 8.42181198342 33.2062933187 10.2136108808
145 9 1 15.9058767036 9.73630220068 5.56391475817
146 9 1 10.60546395 11.2074709136 5.84306021549
147 9 2 16.2306305148 9.94984386413 5.95928252592
148 9 2 16.7375657272 10.5516345886 6.6327533014
149 9 2 17.0649192639 11.367338938 7.18062586636
150 9 2 17.171375255 12.321896715 7.5681627593
151 9 2 17.0357511275 13.3275921843 7.77524001594
152 9 2 16.6589282514 14.2920487605 7.79818133061
153 9 2 16.0637716092 15.1266485005 7.65009312629
154 9 2 15.293045809 15.7546090217 7.35966999402
155 9 2 14.405517384 16.1179816894 6.96857937765
156 9 2 13.4705986258 16.1829332379 6.52766387202
157 9 2 12.5620211302 15.9428294401 6.09230726904
158 9 2 11.7511156671 15.4188397728 5.71738670475
159 9 2 11.1003108706 14.6580079629 5.45227098459
160 9 2 10.6574432967 13.7289642751 5.33632095533
161 9 2 10.451397449 12.7156703335 5.39530203369
162 9 2 10.4894731547 11.709766595 5.63903586528
163 10 1 36.4967319669 54.4537311048 5.3647932604
164 10 1 32.3115718077 50.9609069611 6.15298668213
165 10 2 36.3497315025 54.9691085881 5.22281556945
166 10 2 35.9437755409 55.8213636744 4.796717815
167 10 2 35.3871737777 56.4642820153 4.20549133124
168 10 2 34.7151526483 56.8419364806 3.51378114802
169 10 2 33.973458272 56.9225769233 2.79539069546
170 10 2 33.2141870071 56.7015239882 2.1265551273
171 10 2 32.4910372244 56.2015956034 1.57899300934
172 10 2 31.8544150697 55.4710272819 1.21336966385
173 10 2 31.3468402884 54.5790757857 1.07376794136
174 10 2 30.9990708427 53.6097068468 1.18367037113
175 10 2 30.8272995341 52.6539422663 1.54381888954
176 10 2 30.8316781406 51.8015639013 2.13214721771
177 10 2 30.9963035831 51.1329306641 2.90579205154
178 10 2 31.2906673821 50.7116543585 3.80499975796
179 10 2 31.6724362963 50.5788018998 4.75857250896
180 10 2 32.0913107075 50.7491523472 5.69035747544
181 11 1 41.9482114204 48.4493489776 16.2339961021
182 11 1 40.3358107164 53.5927010286 15.1014200225
183 11 2 42.4396142749 48.3045827941 16.0219896437
184 11 2 43.2663067509 48.1188523215 15.4263538383
185 11 2 43.9168088775 48.0713215078 14.6218129281
186 11 2 44.3418412316 48.1823933781 13.6838849945
187 11 2 44.5126744138 48.4580154099 12.7002454312
188 11 2 44.4237475367 48.889137462 11.7627359337
189 11 2 44.0931750613 49.4525366324 10.9589937584
190 11 2 43.5610957878 50.1129338666 10.3644641873
191 11 2 42.88601448 50.8262094015 10.0355242077
192 11 2 42.1394695563 51.5434239798 10.0043441369
193 11 2 41.399512854 52.2152793269 10.2759555178
194 11 2 40.7435957389 52.7966113516 10.8277925285
195 11 2 40.2415099449 53.2505065426 11.6117487021
196 11 2 39.9490265355 53.5516663825 12.5585615015
197 11 2 39.902812754 53.6887131337 13.5841251249
198 11 2 40.1170900553 53.6652268416 14.5971561724
199 12 1 25.9756543746 10.729677993 5.24112442574
200 12 1 22.2075812739 7.56974939336 7.72167099454
201 12 2 25.7883602098 11.0265005492 4.81194146057
202 12 2 25.3509185452 11.3742519394 3.93992538745
203 12 2 24.8205875037 11.4306195364 3.05207970746
204 12 2 24.2284247074 11.1956392973 2.23548569512
205 12 2 23.6111233191 10.6959015365 1.57073052396
206 12 2 23.0076677118 9.98212740182 1.12456229812
207 12 2 22.4557803106 9.12454598869 0.943806420386
208 12 2 21.9884834521 8.20649344024 1.05109777766
209 12 2 21.6310896248 7.31681742891 1.44281772629
210 12 2 21.3988944095 6.54177930034 2.08942390657
211 12 2 21.2957823921 5.95719194314 2.93814282633
212 12 2 21.3138731096 5.62150996386 3.91777980287
213 12 2 21.434239301 5.57050195036 4.94520787024
214 12 2 21.628631997 5.81399041028 5.93294423219
215 12 2 21.8620552199 6.3349565168 6.7971237193
216 12 2 22.095955627 7.09109125806 7.46514252419
217 13 1 25.5944057785 31.3765894732 51.3356091667
218 13 1 23.0847598213 34.8192278423 47.8446847683
219 13 2 25.9777610332 31.0476470108 51.1071001804
220 13 2 26.5230058538 30.3865551531 50.5254096164
221 13 2 26.8099481649 29.7280878066 49.7792305931
222 13 2 26.8205742766 29.1440247796 48.923978737
223 13 2 26.562054826 28.6993644371 48.0250109153
224 13 2 26.0660912232 28.4463995448 47.1516684057
225 13 2 25.3860262847 28.4199511427 46.3709569145
226 13 2 24.5919824014 28.6341948457 45.7414394657
227 13 2 23.7644703639 29.0813688333 45.3078987829
228 13 2 22.9870513552 29.7324812868 45.0972556514
229 13 2 22.3387209224 30.5399527945 45.1161152724
230 13 2 21.886709074 31.4419528889 45.3501652452
231 13 2 21.6803527253 32.3680354698 45.7654800435
232 13 2 21.7465989772 33.2455594837 46.3116130953
233 13 2 22.0875490725 34.0063096574 46.9261946413
234 13 2 22.6802668822 34.5927138527 47.5406163117
235 14 1 16.0830465137 13.056185579 48.032318203
236 14 1 13.6366795894 8.30642273906 49.370853508
237 14 2 15.7994785877 13.3756673182 47.6789042796
238 14 2 15.255288259 13.7741895592 46.8929429696
239 14 2 14.7209537035 13.8816607333 46.0122416578
240 14 2 14.227275812 13.6857193396 45.12309185
241 14 2 13.8013498991 13.2016578524 44.3125550745
242 14 2 13.464096151 12.4710289172 43.6605278208
243 14 2 13.2283528942 11.5578581119 43.2324595221
244 14 2 13.0977064699 10.5428084544 43.0733872883
245 14 2 13.0661643633 9.51582852119 43.2038310826
246 14 2 13.1187013808 8.56795425195 43.6179234667
247 14 2 13.232629093 7.78301164725 44.2839443784
248 14 2 13.3796637295 7.22997660358 45.1472121973
249 14 2 13.5285040508 6.9566882332 46.1350675999
250 14 2 13.6476842416 6.98548865707 47.1634959585
251 14 2 13.7084418042 7.31118667374 48.1447846987
252 14 2 13.6873390628 7.90153090169 48.9955176991
253 15 1 52.831040715 10.034417474 18.6338965393
254 15 1 54.1340599498 6.12486977107 22.2882381434
255 15 2 52.6422184471 10.5076005586 18.8525850648
256 15 2 52.145989185 11.2480111547 19.3800762397
257 15 2 51.512982065 11.7445006549 20.0323786491
258 15 2 50.8118960257 11.9535590951 20.7655029259
259 15 2 50.1176349329 11.8578738819 21.5280933442
260 15 2 49.5044806047 11.4679077163 22.2661085409
261 15 2 49.0393225343 10.8209449907 22.9277470164
262 15 2 48.7755613702 9.97769357177 23.4681684852
263 15 2 48.748241814 9.01675169498 23.853580761
264 15 2 48.9708585357 8.02744427401 24.0643196828
265 15 2 49.4341262271 7.10168154746 24.0966413679
266 15 2 50.1068258941 6.3255820907 23.963063442
267 15 2 50.9386502539 5.77162369815 23.6912241424
268 15 2 51.864788899 5.49203752928 23.321363283
269 15 2 52.8118353213 5.51404759647 22.9026546707
270 15 2 53.7044774123 5.83738948297 22.4887242502
271 16 1 5.5473631461 54.4115027006 14.2196507587
272 16 1 10.5733531726 54.3767981818 11.9669069256
273 16 2 5.42750076116 53.971302166 14.5346702019
274 16 2 5.27995795934 53.0281132169 14.936321791
275 16 2 5.25723455823 52.0014562652 15.071071268
276 16 2 5.37804534399 50.9818024989 14.9353906795
277 16 2 5.6480229457 50.058984814 14.5503999185
278 16 2 6.05920445988 49.3140101613 13.9599417911
279 16 2 6.59075721453 48.8116763186 13.2265860447
280 16 2 7.21087752438 48.5946660176 12.4259265655
281 16 2 7.87968937872 48.6796567053 11.6396915131
282 16 2 8.55287886637 49.0558005089 10.9482943597
283 16 2 9.18573308493 49.6857129456 10.4235047531
284 16 2 9.73721541522 50.5088802614 10.1219072055
285 16 2 10.1737057278 51.447174845 10.0797438033
286 16 2 10.4720646271 52.4119760241 10.3096109891
287 16 2 10.6217424491 53.3122472318 10.7993114824
288 16 2 10.6257407904 54.0628333659 11.5129659785
289 17 1 61.2554994101 49.3408538665 34.2620909811
290 17 1 58.2104616084 46.1996923857 37.6083552063
291 17 2 61.2545098723 49.882192253 34.3818094998
292 17 2 61.0191366913 50.8650989868 34.6080661893
293 17 2 60.5002983342 51.73212064 34.8356150478
294 17 2 59.7454859857 52.4039509767 35.0627726768
295 17 2 58.8236982422 52.8190741109 35.2878913358
296 17 2 57.8191523627 52.9393712582 35.5095091221
297 17 2 56.8236084425 52.7535950017 35.726483214
298 17 2 55.9280061103 52.2783944167 35.9380940304
299 17 2 55.2141760042 51.5567976215 36.144110816
300 17 2 54.7473814702 50.65429006 36.3448126731
301 17 2 54.5703702555 49.6528459518 36.5409631235
302 17 2 54.6994783446 48.6434569046 36.7337405182
303 17 2 55.1231410462 47.7178386528 36.9246306392
304 17 2 55.8029470356 46.9600717971 37.1152912806
305 17 2 56.6771392836 46.4389384342 37.307401152
306 17 2 57.6662437862 46.2016531404 37.5025068757
307 18 1 36.3113081451 14.2065502594 63.182585107
308 18 1 32.769064013 11.1530887642 66.0921408004
309 18 2 36.3997003184 14.7169733119 63.3801601127
310 18 2 36.3298243224 15.6810204999 63.7522201018
311 18 2 35.9611599634 16.578691271 64.1141207073
312 18 2 35.3273619178 17.3250506592 64.4516795499
313 18 2 34.4862499801 17.8489546938 64.752932835
314 18 2 33.5145391844 18.0995346845 65.0092257708
315 18 2 32.5008477555 18.0508335535 65.2160013929
316 18 2 31.537620165 17.7041716454 65.3732159007
317 18 2 30.7127014517 17.0880263868 65.4853426493
318 18 2 30.1013307483 16.2554367641 65.5609644339
319 18 2 29.7592837507 15.2791691835 65.6119912269
320 18 2 29.7177891455 14.245085312 65.6525746656
321 18 2 29.9806823293 13.2443163751 65.6978182275
322 18 2 30.5240558387 12.3649571704 65.7624006516
323 18 2 31.2984383516 11.6840368309 65.8592380725
324 18 2 32.233303659 11.2604981475 65.9983068027
325 19 1 30.8484115575 23.0294832299 4.97098971762
326 19 1 27.1898540513 19.1998938614 3.45909118613
327 19 2 30.9205006641 23.4424731312 4.60819052557
328 19 2 31.0817560533 24.0381594519 3.77641364571
329 19 2 31.249508435 24.360573905 2.80656503384
330 19 2 31.3906817099 24.3830771704 1.78076681753
331 19 2 31.4746222821 24.1063647762 0.786240547203
332 19 2 31.4758929242 23.5584037069 -0.0926424501801
333 19 2 31.3765912059 22.7918834037 -0.782050939137
334 19 2 31.1679811783 21.8794134837 -1.22542298657
335 19 2 30.8512895953 20.9069058707 -1.38862119416
336 19 2 30.4375941036 19.9657445127 -1.26304408822
337 19 2 29.9468135912 19.1444563616 -0.866410084982
338 19 2 29.405892717 18.5206427481 -0.241142578491
339 19 2 28.8463460904 18.153906553 0.549496660926
340 19 2 28.3013859302 18.0804198127 1.42717336329
341 19 2 27.8028949989 18.3096268865 2.30562039062
342 19 2 27.3785207074 18.8233836678 3.09850039508
343 20 1 10.1210287438 36.6327526462 19.7418897809
344 20 1 11.9196116973 36.7174480297 14.5366461768
345 20 2 9.59949451543 36.8066311648 19.8136467389
346 20 2 8.69745264833 37.3155272479 19.8202435282
347 20 2 7.95413890254 38.0159477105 19.6482141064
348 20 2 7.42869443229 38.8368294242 19.2978434569
349 20 2 7.16040310112 39.6961300432 18.7856711434
350 20 2 7.16511102698 40.5083056024 18.1429838419
351 20 2 7.43378231727 41.1921072625 17.4129637746
352 20 2 7.93332262849 41.6779865849 16.6467529468
353 20 2 8.60959548873 41.9144343952 15.8987919033
354 20 2 9.39235646594 41.8726754912 15.2218578463
355 20 2 10.2016554663 41.5492913054 14.662254355
356 20 2 10.9551236371 40.9665314837 14.2555911321
357 20 2 11.5754807231 40.1702859831 14.0235384234
358 20 2 11.9975786316 39.2259025162 13.9718519233
359 20 2 12.1743392347 38.212230556 14.0898481833
360 20 2 12.081045218 37.2144347464 14.3513783342
361 21 1 11.4477889272 50.9531275318 23.468606118
362 21 1 10.3255819436 45.7433731629 24.859916949
363 21 2 11.0759674863 51.3275615573 23.638690592
364 21 2 10.227146834 51.8788300692 23.8584741196
365 21 2 9.24280370153 52.1881915481 23.9482646762
366 21 2 8.20807261179 52.2207498583 23.9171230731
367 21 2 7.21268060437 51.966837575 23.7851322588
368 21 2 6.34276923126 51.4428971041 23.581566896
369 21 2 5.67304334494 50.6899820693 23.3422251767
370 21 2 5.25996226325 49.7700155559 23.1061660627
371 21 2 5.13659388968 48.7601462464 22.9121493285
372 21 2 5.30960080069 47.7457168465 22.7951028742
373 21 2 5.75863299751 46.812485683 22.7829392865
374 21 2 6.43818266902 46.0388104202 22.894011798
375 21 2 7.28173191677 45.488506296 23.1354415156
376 21 2 8.20781540529 45.2050298003 23.5024683807
377 21 2 9.12744536897 45.2075179141 23.9788850159
378 21 2 9.95222223671 45.4890439051 24.5385139161
379 22 1 52.2322578648 54.1168246234 59.4786548243
380 22 1 48.6716267061 54.1983384958 55.2772388526
381 22 2 52.0227624408 54.2722496868 59.9678740682
382 22 2 51.553070523 54.7474966142 60.7592198405
383 22 2 51.004921746 55.4175988251 61.32772157
384 22 2 50.4108724063 56.2137380832 61.6209210495
385 22 2 49.8076623216 57.0556087393 61.6114519847
386 22 2 49.2328662491 57.8587370411 61.299534244
387 22 2 48.7214692033 58.542180336 60.7129538188
388 22 2 48.3026778122 59.0359044393 59.9045303211
389 22 2 47.9972583333 59.28716677 58.9473028381
390 22 2 47.8156439516 59.2653234752 57.92787292
391 22 2 47.7569838662 58.9646224073 56.9385114425
392 22 2 47.8092208353 58.4047273929 56.068748749
393 22 2 47.9501901107 57.6289260098 55.3972145738
394 22 2 48.149639603 56.700184221 54.9844714808
395 22 2 48.3719871517 55.6954074588 54.8674950012
396 22 2 48.5795635958 54.6984312221 55.0563035669
397 23 1 28.7684639434 17.2631302759 47.3185663006
398 23 1 30.5653222131 12.3718743801 49.1028171371
399 23 2 28.7613877386 17.6649724105 47.7004741139
400 23 2 28.633706926 18.2549723639 48.5420773078
401 23 2 28.3814578368 18.5863528914 49.4903681989
402 23 2 28.04359937 18.6252355179 50.4686514242
403 23 2 27.6668931322 18.3644009468 51.3974980251
404 23 2 27.3016414381 17.823947049 52.2019848524
405 23 2 26.9971025991 17.04945708 52.8185232977
406 23 2 26.7970013663 16.1078450786 53.2006549589
407 23 2 26.735543719 15.081257111 53.3232860053
408 23 2 26.8342992241 14.0595842203 53.1849743079
409 23 2 27.1002351183 13.1322694738 52.80806088
410 23 2 27.5250812919 12.380155841 52.2366336464
411 23 2 28.0860840527 11.8681179111 51.532509132
412 23 2 28.7480799693 11.639149019 50.7695983089
413 23 2 29.4667007763 11.7104426974 50.0271701183
414 23 2 30.192417238 12.0718256044 49.3826266497
415 24 1 57.2315073026 45.1964700165 8.72544172956
416 24 1 54.4891798588 41.8404197292 12.1244418159
417 24 2 57.1901815614 45.7365279171 8.84380725958
418 24 2 56.8824321041 46.6989917121 9.07107799245
419 24 2 56.3011351641 47.5238992653 9.30414379246
420 24 2 55.4997746494 48.1358688949 9.54081396176
421 24 2 54.5518917541 48.4789267506 9.77856928894
422 24 2 53.5443821828 48.5216084467 10.0147916579
423 24 2 52.5695762026 48.259826825 10.2470026712
424 24 2 51.7168233727 47.7172444713 10.4730895388
425 24 2 51.0643489444 46.9431170331 10.6914976449
426 24 2 50.6721241657 46.0078039045 10.9013722398
427 24 2 50.5764003135 44.9963554505 11.102636345
428 24 2 50.786404638 44.0007612488 11.2959977691
429 24 2 51.2834993622 43.1115658708 11.4828845959
430 24 2 52.0228803875 42.4096163646 11.6653150244
431 24 2 52.9376608802 41.9586936009 11.8457134236
432 24 2 53.9449675476 41.7996990838 12.0266893682
433 25 1 62.9597307058 64.2291820213 47.5054946995
434 25 1 60.1265527319 60.4492514596 50.337783958
435 25 2 62.8799345751 64.7533923395 47.6674109479
436 25 2 62.5034134376 65.6754391376 47.9515936468
437 25 2 61.8615418208 66.4476873218 48.2052308694
438 25 2 61.0117445852 66.997800421 48.4241338329
439 25 2 60.0303975857 67.273688054 48.6072795446
440 25 2 59.0058665366 67.2482536108 48.7569040397
441 25 2 58.0304530819 66.9218639227 48.8782985828
442 25 2 57.191982134 66.3223158282 48.9793274049
443 25 2 56.5657972343 65.5023026818 49.0697109329
444 25 2 56.2078935066 64.5346117158 49.1601398392
445 25 2 56.1498140853 63.5054899833 49.2613006603
446 25 2 56.3957751746 62.5067835308 49.3829017924
447 25 2 56.9222817711 61.6275662603 49.5327886374
448 25 2 57.6802690714 60.9460214543 49.7162285482
449 25 2 58.5995743935 60.5223159052 49.935430746
450 25 2 59.5953320233 60.393116125 50.1893449648
451 26 1 61.1959325985 50.2661949584 6.121578474
452 26 1 56.7894824331 50.5095963095 9.41711904414
453 26 2 61.4760071284 50.7415989397 6.06744840936
454 26 2 61.7863267859 51.7187502872 5.92056333419
455 26 2 61.7951738059 52.7387570244 5.74110231474
456 26 2 61.5008291267 53.7156806952 5.56311461209
457 26 2 60.9292075313 54.5675095699 5.42051520456
458 26 2 60.1314956926 55.2236334516 5.34399367001
459 26 2 59.1794868589 55.6312793118 5.35821704122
460 26 2 58.1590373919 55.7603211902 5.47958157494
461 26 2 57.1622415477 55.606025969 5.71471834556
462 26 2 56.279037717 55.1894847648 6.05988886809
463 26 2 55.589011157 54.5556906173 6.50132583548
464 26 2 55.1541403414 53.7694376825 7.01648791421
465 26 2 55.0131480469 52.9094156897 7.57611423236
466 26 2 55.1779720381 52.0610379121 8.14689130742
467 26 2 55.6326770218 51.3086563323 8.69448934184
468 26 2 56.3349070397 50.7278735378 9.18669114871
469 27 1 37.0773900953 60.2037559524 51.4150745829
470 27 1 38.2527336012 57.9921133525 56.3205653412
471 27 2 37.4485382116 60.1020963622 51.0159566114
472 27 2 38.2959774389 59.9864956097 50.4318491786
473 27 2 39.2791011925 59.961218943 50.1069999116
474 27 2 40.3131365892 60.0105209171 50.0747759317
475 27 2 41.3086704984 60.1118587551 50.3418735716
476 27 2 42.1797989364 60.2379469677 50.8877080504
477 27 2 42.851956625 60.3592442389 51.6662896356
478 27 2 43.2687131059 60.4466459139 52.6104152914
479 27 2 43.3969159895 60.4741366894 53.6377937752
480 27 2 43.2297125685 60.4211617297 54.6585459198
481 27 2 42.7871743949 60.274500099 55.5833965035
482 27 2 42.1144678955 60.0294697594 56.3318110741
483 27 2 41.2777377623 59.6903543066 56.8393361127
484 27 2 40.3580783164 59.2700125489 57.0634735294
485 27 2 39.4441423178 58.7887065157 56.9875540731
486 27 2 38.624060873 58.2722547119 56.6222566197
487 28 1 61.0469925618 9.1420112475 6.97192006007
488 28 1 57.5223690476 5.71788134228 9.45968982478
489 28 2 60.9273833385 9.68096058658 7.02298859487
490 28 2 60.4903386676 10.6196335198 7.04714125824
491 28 2 59.8063321253 11.3954010358 6.99220418219
492 28 2 58.9313954499 11.9384026842 6.88114881283
493 28 2 57.9389623523 12.1999930274 6.74206139392
494 28 2 56.9131755364 12.157175339 6.60558309837
495 28 2 55.9412176694 11.8146975977 6.50211729537
496 28 2 55.1053652782 11.2046197414 6.45905849175
497 28 2 54.4754898093 10.3833916238 6.49829551051
498 28 2 54.1026893247 9.42670799733 6.63421647468
499 28 2 54.014631264 8.42260945522 6.87239742851
500 28 2 54.2130307472 7.4634581353 7.20909411934
501 28 2 54.6734942533 6.63751954421 7.63158326047
502 28 2 55.3477429222 6.02091776169 8.1193221716
503 28 2 56.1680128419 5.67069725261 8.64582110322
504 28 2 57.0532312645 5.6196236551 9.18105759571
505 29 1 12.9991186882 4.50204764921 30.773973015
506 29 1 10.8730007923 9.3007122906 29.103920537
507 29 2 12.6541922937 4.18042413168 31.0654603166
508 29 2 11.9748953728 3.77606043964 31.7345970507
509 29 2 11.2909330716 3.66108957228 32.5038015367
510 29 2 10.6481303703 3.84886140854 33.2938931109
511 29 2 10.0885608338 4.32513290554 34.0237873951
512 29 2 9.64671189488 5.04936625432 34.6178865811
513 29 2 9.34634156073 5.95842362316 35.0129696529
514 29 2 9.19831303381 6.97232173811 35.1639545489
515 29 2 9.19960460531 8.00152181 35.0480070825
516 29 2 9.33358506319 8.9550903812 34.6666221221
517 29 2 9.57152951315 9.74898728682 34.0454873436
518 29 2 9.87523745582 10.3137253396 33.2321419752
519 29 2 10.2005145003 10.6007036105 32.2916439223
520 29 2 10.50120038 10.5866370703 31.300640186
521 29 2 10.7333761444 10.2756788604 30.3403810142
522 29 2 10.8593670703 9.69904176221 29.4893144981
523 30 1 51.6610124789 22.541264778 39.8972545503
524 30 1 46.6034641606 21.3213391395 38.0890451123
525 30 2 51.6791312586 22.8153027984 40.3788722668
526 30 2 51.5566026937 23.4681445211 41.1735311288
527 30 2 51.2294201639 24.244085359 41.7764952067
528 30 2 50.7132881965 25.0640471998 42.1425124782
529 30 2 50.0411327648 25.8449397185 42.2479269977
530 30 2 49.2601003109 26.5072334911 42.0928349737
531 30 2 48.4272606713 26.9822085562 41.7010760002
532 30 2 47.604405552 27.2182177681 41.1180602408
533 30 2 46.8524166386 27.1853940805 40.4066296042
534 30 2 46.2257166478 26.8783727226 39.6413301345
535 30 2 45.7673090701 26.3167801613 38.9016176506
536 30 2 45.5048586962 25.5434452834 38.2646158931
537 30 2 45.4481701614 24.6204958361 37.7980872242
538 30 2 45.58829432 23.6236959089 37.5542565527
539 30 2 45.8983438985 22.635540556 37.5650513919
540 30 2 46.3359440868 21.7377369382 37.8391918855
541 31 1 19.7098975348 28.3514165511 39.8084013521
542 31 1 16.9371850167 23.6062571196 40.1719425311
543 31 2 19.3956329665 28.8031888237 39.7411678303
544 31 2 18.7107159165 29.5206213893 39.4430446687
545 31 2 17.9414940436 30.0132255104 38.9548467977
546 31 2 17.1432174199 30.2321535048 38.3323331542
547 31 2 16.3737842585 30.1535013924 37.6435046367
548 31 2 15.6884638889 29.78048758 36.9624062899
549 31 2 15.1348593363 29.1431595251 36.3623786066
550 31 2 14.748568632 28.295655116 35.9093730442
551 31 2 14.5499402975 27.3112683751 35.6559410019
552 31 2 14.5422187156 26.2757692105 35.6364441207
553 31 2 14.7112484278 25.2795860775 35.8639224559
554 31 2 15.0267643066 24.4095640445 36.3289059647
555 31 2 15.445150015 23.7410494608 37.0002776363
556 31 2 15.9134133363 23.3310226532 37.8281095939
557 31 2 16.3740160512 23.2129045598 38.7482136783
558 31 2 16.7701181524 23.3935106409 39.6879917585
559 32 1 11.9731742968 46.3710466162 42.1449957197
560 32 1 15.3897969811 44.9768001653 46.2339321577
561 32 2 11.7557159087 46.8796241017 42.1829633688
562 32 2 11.2965205327 47.7615872457 42.4727544838
563 32 2 10.8180265719 48.4929498097 43.0284977704
564 32 2 10.3786116484 49.0170483173 43.8062725131
565 32 2 10.0330915981 49.29610999 44.7419213515
566 32 2 9.8277243829 49.3146954769 45.7568977836
567 32 2 9.79599399459 49.0811060453 46.7654251412
568 32 2 9.95555861882 48.6266269777 47.682314545
569 32 2 10.3066412123 48.0026761322 48.430729287
570 32 2 10.8320091819 47.2761175577 48.9491879694
571 32 2 11.4985450175 46.5231672941 49.1971681128
572 32 2 12.2602647256 45.8224468027 49.1587995021
573 32 2 13.0625089556 45.2478171594 48.8443106478
574 32 2 13.8469248245 44.8616471235 48.2890965276
575 32 2 14.5567843819 44.7091286533 47.5504925769
576 32 2 15.1421549745 44.814157969 46.7025489565
577 33 1 5.0667005672 31.9439690602 19.2932337128
578 33 1 1.23512710675 34.2520395033 16.0794368035
579 33 2 5.52290677298 32.2490312823 19.3719337135
580 33 2 6.37137125869 32.8365190536 19.2843871196
581 33 2 7.14067685008 33.4144509761 18.9011615057
582 33 2 7.75339751586 33.9476996748 18.2585749496
583 33 2 8.14637886717 34.4052103447 17.416584501
584 33 2 8.27649424709 34.7628311824 16.4533215071
585 33 2 8.12457542975 35.0055146582 15.4579704762
586 33 2 7.69715967272 35.1286889946 14.5226405213
587 33 2 7.02589389078 35.138674853 13.7339702457
588 33 2 6.16465025661 35.0521092486 13.1652312283
589 33 2 5.18461612163 34.8944292003 12.8696498221
590 33 2 4.16780577696 34.6975533209 12.8755559363
591 33 2 3.19958541308 34.4969726548 13.1838009597
592 33 2 2.36089257688 34.3285159121 13.7676801624
593 33 2 1.72085926914 34.2250839275 14.575366649
594 33 2 1.33051103666 34.2136509749 15.5346350244