LAMMPS input file for bananas

648 atoms

2 atom types

0 85.0126855346 xlo xhi
0 85.0126855346 ylo yhi
0 85.0126855346 zlo zhi

Masses

 1 1
 2 1

Atoms

1 1 1 8.89091550898 34.6879533584 61.1359001702
2 1 1 7.19566533885 29.6188817892 59.7399663076
3 1 2 9.3485546434 34.7033894437 61.4484857392
4 1 2 10.0871490641 34.5755592539 62.1637393554
5 1 2 10.6241510002 34.2430021918 62.9850095498
6 1 2 10.9210355866 33.721811566 63.8297993966
7 1 2 10.961164013 33.0452741305 64.6134682162
8 1 2 10.7513001067 32.2608360855 65.2569463476
9 1 2 10.3209938281 31.4257784836 65.6939421362
10 1 2 9.71988787055 30.6019962145 65.876984241
11 1 2 9.01319286163 29.8503564517 65.7817485205
12 1 2 8.27574358875 29.2251507718 65.4092751135
13 1 2 7.58517800829 28.7691466229 64.7858736325
14 1 2 7.01486075337 28.5096891857 63.9607251137
15 1 2 6.62719614363 28.4562089334 63.0013992961
16 1 2 6.4679401983 28.5993620694 61.9876958214
17 1 2 6.56203009731 28.9118821893 61.004370709
18 1 2 6.91131122404 29.3510655408 60.1334110719
19 2 1 11.8060609107 64.5873718418 47.4488730399
20 2 1 8.02902501472 60.5929567776 46.9042271024
21 2 2 12.0100396873 64.6477365251 47.9608597114
22 2 2 12.1640967219 64.7644753118 48.9787440353
23 2 2 12.0125404332 64.8615496457 49.9990661787
24 2 2 11.5704058974 64.9118632466 50.9347133371
25 2 2 10.879213621 64.8925819501 51.7062906046
26 2 2 10.0031850579 64.7872149808 52.2493576075
27 2 2 9.02338899562 64.5871180423 52.5203020718
28 2 2 8.03035235182 64.2922812216 52.5003149656
29 2 2 7.11580888778 63.9113298928 52.1971048922
30 2 2 6.36433792125 63.4607385373 51.6441954711
31 2 2 5.84565514768 62.9633291386 50.8978697502
32 2 2 5.60825824092 62.4461910199 50.0320401561
33 2 2 5.67500641987 61.9382117245 49.1315115739
34 2 2 6.04103689177 61.4674439933 48.284251609
35 2 2 6.6742080828 61.0585488328 47.5733725745
36 2 2 7.51802925655 60.7305477298 47.0695560263
37 3 1 51.3026012846 51.1903563816 30.3898827335
38 3 1 48.6145531621 47.6816493975 33.7036967977
39 3 2 51.2177055702 51.7270777994 30.4999028469
40 3 2 50.8322829603 52.6678083655 30.6997163223
41 3 2 50.183524965 53.4523571643 30.8921903647
42 3 2 49.3300257558 54.0092199077 31.0789870352
43 3 2 48.3490411189 54.2876452832 31.2622858722
44 3 2 47.3294467964 54.2622608001 31.4445852323
45 3 2 46.3636377 53.9353854243 31.6284745717
46 3 2 45.5391063618 53.3368182107 31.8163984243
47 3 2 44.930468224 52.5211221991 32.0104335887
48 3 2 44.5926606403 51.562651139 32.2120998341
49 3 2 44.5559354836 50.5487723438 32.4222213767
50 3 2 44.823101768 49.5719033939 32.6408517553
51 3 2 45.3692696153 48.7210885214 32.8672689508
52 3 2 46.1441189003 48.0738824659 33.1000411966
53 3 2 47.076485796 47.6892815676 33.3371574804
54 3 2 48.0808491663 47.6023464086 33.5762108423
55 4 1 38.2627025441 29.4885632348 80.9692613395
56 4 1 36.856316855 25.8924003543 84.9199173473
57 4 2 38.0190735438 29.9850869044 81.0078714912
58 4 2 37.3671274843 30.7852165733 81.0984742485
59 4 2 36.512615203 31.3579864729 81.2217358176
60 4 2 35.5333177649 31.6540139344 81.3854254046
61 4 2 34.5183900685 31.6491406229 81.5936273095
62 4 2 33.5602346153 31.3466345045 81.8463686536
63 4 2 32.7460792685 30.7768919802 82.1396169074
64 4 2 32.1500266663 29.9946673353 82.4656474449
65 4 2 31.8262999648 29.0740820321 82.8137476225
66 4 2 31.8043005423 28.1018687375 83.1711932078
67 4 2 32.0859281417 27.1694658717 83.5244081595
68 4 2 32.6454077147 26.3646832405 83.8602020474
69 4 2 33.4316387481 25.7636984068 84.1669723246
70 4 2 34.372852939 25.4241133085 84.4357618687
71 4 2 35.3831556843 25.3797039968 84.6610753996
72 4 2 36.3703551433 25.6373420385 84.8413803597
73 5 1 78.7561016619 70.8234671945 15.5668751695
74 5 1 77.5938064052 76.2238642692 15.6195271721
75 5 2 78.8104337553 70.591333727 16.0674185392
76 5 2 79.0575444662 70.3382732201 17.041249473
77 5 2 79.4618564397 70.3472854968 17.9951365827
78 5 2 79.9727854207 70.6265458484 18.852116888
79 5 2 80.530029299 71.1595971761 19.5440602045
80 5 2 81.0690644851 71.9068500124 20.0178790285
81 5 2 81.5270270634 72.8091909945 20.2403673206
82 5 2 81.8484426697 73.7933708897 20.2012271476
83 5 2 81.9902828312 74.7786810671 19.9140073119
84 5 2 81.9258868972 75.6843098736 19.4148684138
85 5 2 81.6473920856 76.4367084002 18.7592869099
86 5 2 81.166450155 76.9762942683 18.0169985821
87 5 2 80.5131653777 77.2628824041 17.2656423076
88 5 2 79.7333506157 77.2793478012 16.5836834827
89 5 2 78.8843516012 77.0331864188 16.0432621115
90 5 2 78.029820026 76.555831945 15.7036174379
91 6 1 27.4349569135 60.4016554049 82.3884907044
92 6 1 32.6081309248 58.9639659525 81.0887558281
93 6 2 27.2551947747 60.210761745 82.8769850975
94 6 2 26.9977723824 59.6479723199 83.7079193826
95 6 2 26.8760237292 58.8647577599 84.3751541461
96 6 2 26.9168082496 57.9341398508 84.8287364884
97 6 2 27.1321709137 56.9425757995 85.0381873569
98 6 2 27.5182443603 55.9820778911 84.9952796304
99 6 2 28.0556013968 55.1418268147 84.7147879992
100 6 2 28.7110257357 54.5000430822 84.2331422914
101 6 2 29.4405395705 54.1168574374 83.6051069917
102 6 2 30.1934120349 54.0288300996 82.8987896047
103 6 2 30.9167831864 54.2456183973 82.189432838
104 6 2 31.5604820479 54.7490965286 81.5525564308
105 6 2 32.0815995588 55.4950076795 81.0570737308
106 6 2 32.448399621 56.4169979143 80.7590104277
107 6 2 32.6432117592 57.4326641591 80.6963979604
108 6 2 32.6640417379 58.4510650225 80.8858070538
109 7 1 59.0631233122 17.4697633861 30.4070435697
110 7 1 64.4436356069 17.5808627132 31.654334814
111 7 2 58.9387086771 17.2121925573 29.9321121486
112 7 2 58.8741314667 16.8699603555 28.9563268673
113 7 2 59.04272337 16.723017837 27.9446773838
114 7 2 59.4414709686 16.7700443932 26.9895654182
115 7 2 60.0463827676 16.9920396529 26.1782394472
116 7 2 60.8146759563 17.3540553152 25.5848422382
117 7 2 61.6886759469 17.8083805939 25.2636529346
118 7 2 62.6010732593 18.2988909277 25.2441396566
119 7 2 63.4810585999 18.7661635845 25.5282735611
120 7 2 64.2607769399 19.1528938843 26.0903491758
121 7 2 64.8815123196 19.4091183674 26.8793273845
122 7 2 65.2990396512 19.4967688309 27.8234875059
123 7 2 65.4876557172 19.3931421429 28.8369644421
124 7 2 65.4425219504 19.0929695729 29.8275750531
125 7 2 65.1801054559 18.6088970219 30.7052204028
126 7 2 64.7366780787 17.9703323829 31.3900980372
127 8 1 60.138186857 15.1708375412 62.1946427664
128 8 1 63.968894806 18.2013519856 59.6140130229
129 8 2 59.6193763711 15.3605077984 62.1472881329
130 8 2 58.7464265515 15.9181925585 62.1273800416
131 8 2 58.0684959242 16.6997349324 62.182621271
132 8 2 57.6471630994 17.6401800424 62.2898204173
133 8 2 57.5206184838 18.6600894511 62.4210502517
134 8 2 57.7001833264 19.6727817627 62.5461932125
135 8 2 58.1692778175 20.5922334003 62.6356865401
136 8 2 58.8849322937 21.3409194254 62.6632168438
137 8 2 59.7817038079 21.8568797288 62.6081184967
138 8 2 60.7776410792 22.0993665285 62.4572572527
139 8 2 61.7817541327 22.0525584216 62.206227398
140 8 2 62.7023077932 21.7270024627 61.8597533197
141 8 2 63.4551831006 21.1586528282 61.4312588908
142 8 2 63.9715445285 20.4055936888 60.9416439201
143 8 2 64.2041141586 19.5427449932 60.4173791903
144 8 2 64.1314809364 18.6550337146 59.8880937173
145 9 1 72.9837668088 25.1580204416 76.1803077335
146 9 1 67.7224645383 23.7933762428 77.1674428257
147 9 2 73.2053745381 25.512587774 76.5443868583
148 9 2 73.4251015741 26.3001189555 77.18075521
149 9 2 73.368827038 27.1811914025 77.7229678352
150 9 2 73.033986258 28.0694319844 78.1381308537
151 9 2 72.4434051306 28.8778142139 78.4049306177
152 9 2 71.6432196017 29.5265904795 78.5155763934
153 9 2 70.6986704979 29.9505608264 78.4765104656
154 9 2 69.6881570001 30.1050157586 78.3078209408
155 9 2 68.6960907671 29.9698113896 78.0414107699
156 9 2 67.805202039 29.5512055043 77.7180898795
157 9 2 67.0889989968 28.8812871781 77.3838554563
158 9 2 66.605067688 28.0150519438 77.085699426
159 9 2 66.3898232124 27.0253890956 76.8673252657
160 9 2 66.4551905831 25.996438025 76.7651645479
161 9 2 66.7875177936 25.0159191397 76.8050563005
162 9 2 67.3488201613 24.1671383833 76.9998918486
163 10 1 12.3649908905 35.4889496747 76.3367351868
164 10 1 10.5362253828 38.2690785652 71.9271443746
165 10 2 12.8723763162 35.6315150033 76.5088303489
166 10 2 13.8768304909 35.8669697726 76.6041344611
167 10 2 14.8734312593 36.0594489306 76.3963155655
168 10 2 15.7711694688 36.2104312429 75.9016232776
169 10 2 16.4880470249 36.3251778015 75.1624549557
170 10 2 16.9585507981 36.4122524908 74.2434912954
171 10 2 17.1396239709 36.4827414117 73.2258008565
172 10 2 17.0145905513 36.5492424139 72.1994508812
173 10 2 16.5946753451 36.624716835 71.255297905
174 10 2 15.9179808448 36.7213081097 70.4767064266
175 10 2 15.0460142892 36.8492349276 69.931950457
176 10 2 14.0580814432 37.0158598277 69.6679905253
177 10 2 13.0440580888 37.2250181218 69.7061933523
178 10 2 12.0961980884 37.4766683169 70.0403843309
179 10 2 11.3007246915 37.7668958965 70.6374103252
180 10 2 10.7299715157 38.0882701189 71.4401614901
181 11 1 9.23526583169 40.5977225132 77.9053967301
182 11 1 10.5762742265 35.2744833051 77.2866787977
183 11 2 8.87625836079 40.7021101887 78.3147846111
184 11 2 8.08065641889 40.7256464302 78.9780444445
185 11 2 7.19225403325 40.5146435758 79.467604459
186 11 2 6.29785435704 40.0760047605 79.7523766839
187 11 2 5.48480718046 39.4373815287 79.8199390081
188 11 2 4.83304723079 38.64465347 79.6776674224
189 11 2 4.40780833566 37.7577464169 79.3520637178
190 11 2 4.25367753404 36.8451703657 78.8863399178
191 11 2 4.39053108674 35.9777749732 78.3364796179
192 11 2 4.81172280846 35.2222917998 77.7661352312
193 11 2 5.48468984972 34.6352519065 77.24082624
194 11 2 6.35392071362 34.2578331993 76.8219672711
195 11 2 7.34601498039 34.1121071734 76.561270316
196 11 2 8.37637355948 34.1990271554 76.4960313215
197 11 2 9.35690967053 34.4983414102 76.6457307637
198 11 2 10.204077718 34.9704390322 77.0102580547
199 12 1 45.9704428954 18.3550874729 59.9705068963
200 12 1 42.6438245074 16.9500899447 64.1511268392
201 12 2 45.9988473742 18.8990685209 59.8672625595
202 12 2 45.8171514768 19.9010088118 59.6760760916
203 12 2 45.3455394237 20.809785779 59.5174680636
204 12 2 44.6266259893 21.549927328 59.4236385778
205 12 2 43.7255668079 22.0613320321 59.4208833451
206 12 2 42.7241196117 22.3047472166 59.527196902
207 12 2 41.7131922323 22.2653467352 59.7506324561
208 12 2 40.7845565945 21.9540823337 60.088567858
209 12 2 40.0224839511 21.4066854276 60.5279446035
210 12 2 39.4960637827 20.680410279 61.0464580806
211 12 2 39.2529064771 19.8488154237 61.6145905762
212 12 2 39.3148037688 18.9950590073 62.1983017359
213 12 2 39.6757424816 18.2043191425 62.7621312519
214 12 2 40.3024526125 17.5560301518 63.2724309751
215 12 2 41.1374398045 17.116642341 63.7004318538
216 12 2 42.1042258029 16.9335652321 64.0248661561
217 13 1 33.0415802353 61.122222523 7.17616603954
218 13 1 28.220788144 59.9516839494 9.60676146464
219 13 2 33.2226860266 61.6404129572 7.25401817123
220 13 2 33.3440706138 62.6665708811 7.32962047405
221 13 2 33.1702054144 63.6879372901 7.32400244804
222 13 2 32.7118647238 64.6146194274 7.25592867316
223 13 2 32.005752018 65.3653547548 7.14985640395
224 13 2 31.1111545303 65.8749178152 7.03370635616
225 13 2 30.1045393779 66.1000653594 6.93631780809
226 13 2 29.0725837885 66.0234778522 6.88481997753
227 13 2 28.1042747034 65.6553381017 6.90215926597
228 13 2 27.2827978547 65.0324031239 7.00500775554
229 13 2 26.6779556089 64.2146538389 7.20224359321
230 13 2 26.3398046673 63.2798279699 7.49414177143
231 13 2 26.2940935317 62.3163344579 7.87234906336
232 13 2 26.5399155971 61.4151952231 8.32064539708
233 13 2 27.0497917865 60.6617487598 8.81642227189
234 13 2 27.7721751954 60.1278717611 9.33274346264
235 14 1 55.8620118599 75.6925707234 42.8730693427
236 14 1 53.5956283789 80.0574245606 45.3889286311
237 14 2 56.148822467 75.3541659677 43.2056403652
238 14 2 56.7886432618 74.9212763009 43.8960647986
239 14 2 57.5025847186 74.781744731 44.6338103837
240 14 2 58.2148213211 74.9484373121 45.3675559913
241 14 2 58.8496829459 75.4063085853 46.0463450791
242 14 2 59.338551992 76.1137729322 46.6242302449
243 14 2 59.6261176915 77.0064949928 47.0644612093
244 14 2 59.675417539 78.0032536618 47.3428345054
245 14 2 59.4712063242 79.013345175 47.4498995601
246 14 2 59.0213456928 79.944850515 47.3918200887
247 14 2 58.3560875783 80.7130135843 47.1898122886
248 14 2 57.5253168189 81.2479664964 46.8782110398
249 14 2 56.5940042881 81.5010978478 46.5013403721
250 14 2 55.6362849732 81.4494835166 46.1094734485
251 14 2 54.7287007691 81.0979761356 45.7542503006
252 14 2 53.9432238897 80.4787627874 45.4839709776
253 15 1 77.509196753 50.80619775 8.56517616274
254 15 1 75.4953996472 50.0037869056 13.6463914815
255 15 2 77.248557904 51.1960967974 8.26949438896
256 15 2 76.5685574656 51.8063389069 7.78097214525
257 15 2 75.6900297633 52.2253791391 7.42594486263
258 15 2 74.6893290468 52.4282577133 7.25019398433
259 15 2 73.653945309 52.4097174061 7.28316038852
260 15 2 72.6745298079 52.1846827336 7.53526093091
261 15 2 71.836632446 51.7868996211 7.99693897621
262 15 2 71.2129041259 51.2658595526 8.6395354599
263 15 2 70.8564748142 50.6822885543 9.41790108533
264 15 2 70.7961108875 50.1026121793 10.2745115615
265 15 2 71.0335931539 49.5929009964 11.1447107883
266 15 2 71.543554537 49.2128484342 11.9626040875
267 15 2 72.2757922172 49.0103298842 12.6670643262
268 15 2 73.1598434844 49.0170389875 13.2073034918
269 15 2 74.1114082259 49.2455988439 13.5475018837
270 15 2 75.0400326565 49.6884114497 13.670072983
271 16 1 19.0104570721 71.9372084981 34.9195439961
272 16 1 15.9969911644 68.8521300329 38.3719786658
273 16 2 19.0062698129 72.4809072101 35.0279680036
274 16 2 18.7651391469 73.467119672 35.2345859922
275 16 2 18.2413056995 74.3356535924 35.4460034931
276 16 2 17.4827805974 75.007491057 35.6621610786
277 16 2 16.558966484 75.4215425076 35.8825672749
278 16 2 15.5543316545 75.5402148921 36.1063433589
279 16 2 14.5607109964 75.3528381708 36.3323034508
280 16 2 13.6689354846 74.8766378622 36.5590626047
281 16 2 12.9605531815 74.1551649826 36.7851630422
282 16 2 12.5003963485 73.2543264876 37.0092070251
283 16 2 12.330672159 72.2563780295 37.2299842557
284 16 2 12.4671156269 71.2524265738 37.4465821917
285 16 2 12.8975554027 70.3341262435 37.6584692228
286 16 2 13.5830231592 69.5853242903 37.8655431247
287 16 2 14.4613054503 69.0744186419 38.0681403772
288 16 2 15.4526143005 68.8481236136 38.2670054945
289 17 1 13.8461425583 74.7805039354 6.70416223305
290 17 1 10.8421755278 71.5649641242 10.0439940947
291 17 2 14.1766803903 75.1423114302 6.96343364747
292 17 2 14.5980176169 75.8725650193 7.56564179117
293 17 2 14.7362637475 76.6056106329 8.28465649681
294 17 2 14.5849070519 77.2642923268 9.06994598992
295 17 2 14.1638323234 77.7782322292 9.86493772629
296 17 2 13.5175084332 78.0902452957 10.6121748282
297 17 2 12.7109351116 78.1615515735 11.2585531252
298 17 2 11.8237183961 77.97531089 11.7601614572
299 17 2 10.9428147542 77.5381577899 12.0862840598
300 17 2 10.1546052335 76.8795968139 12.2222002236
301 17 2 9.53702206027 76.049313239 12.1705260476
302 17 2 9.15244532512 75.1126443979 11.9509759892
303 17 2 9.04201720473 74.1446243563 11.5985659434
304 17 2 9.22189196224 73.2231447576 11.1604216384
305 17 2 9.68176352939 72.4218552086 10.6914832506
306 17 2 10.3858048771 71.8034503141 10.2494977549
307 18 1 29.3055759008 65.1203490064 60.4217091682
308 18 1 26.5890858456 60.3170180444 60.1634757259
309 18 2 28.9881398623 65.5715030345 60.3662475382
310 18 2 28.3145789588 66.3018644725 60.0724144385
311 18 2 27.5776551392 66.8232107532 59.5638956573
312 18 2 26.8287427415 67.0828881968 58.8967016397
313 18 2 26.1203088306 67.0520935383 58.1413056548
314 18 2 25.5011309652 66.7284992687 57.3762203452
315 18 2 25.0118512545 66.1364657808 56.6808415095
316 18 2 24.6812719378 65.3248209849 56.1282113876
317 18 2 24.5237301375 64.3624097747 55.7783610555
318 18 2 24.5377910693 63.3318189998 55.6728387536
319 18 2 24.7063788182 62.321849895 55.8309228752
320 18 2 24.9983327629 61.4194240849 56.2478647926
321 18 2 25.3712477831 60.7016609101 56.8953216821
322 18 2 25.7753393729 60.2288482056 57.7239398962
323 18 2 26.1579813654 60.0389472259 58.667853417
324 18 2 26.4685026671 60.1441325778 59.6506873674
325 19 1 44.7990231942 43.2587311171 6.24974867682
326 19 1 42.0427837302 39.1752629022 8.7490330576
327 19 2 44.7659263042 43.7513942434 6.50187806413
328 19 2 44.4730106251 44.628056108 6.96997462596
329 19 2 43.904791667 45.3730820749 7.41214375148
330 19 2 43.113730316 45.9135164435 7.80660876039
331 19 2 42.1725989463 46.1950514906 8.13594107512
332 19 2 41.1678484137 46.1869774742 8.38864878906
333 19 2 40.1917282904 45.8849817445 8.5602241232
334 19 2 39.3338785634 45.3115418301 8.65355429807
335 19 2 38.673159189 44.5138766716 8.67865837137
336 19 2 38.2704622191 43.5596427414 8.65177402758
337 19 2 38.1631616526 42.5307673367 8.59387755645
338 19 2 38.3617068963 41.515981126 8.52877192025
339 19 2 38.8486703284 40.602730585 8.48091717738
340 19 2 39.5803357803 39.8692074848 8.47320101342
341 19 2 40.4906831482 39.3772219205 8.52485258976
342 19 2 41.4974059495 39.1665684864 8.64968985695
343 20 1 36.6145155804 3.0026251278 31.3719375142
344 20 1 40.039323915 4.95280279796 27.5008283724
345 20 2 36.2893211241 2.58492312561 31.2071491923
346 20 2 35.632922397 1.94847721459 30.7197814415
347 20 2 34.9761616301 1.5414473184 30.0295336817
348 20 2 34.3908035828 1.39095251084 29.1880128676
349 20 2 33.9421048469 1.50072937808 28.2606140888
350 20 2 33.6828658837 1.85079143874 27.3205599814
351 20 2 33.6486184024 2.39925085832 26.4422266812
352 20 2 33.8543867399 3.08613641329 25.6943646372
353 20 2 34.2933184329 3.83885970789 25.1338321923
354 20 2 34.9373088014 4.57883141235 24.8004130969
355 20 2 35.739562615 5.22862447024 24.7131903269
356 20 2 36.6388593536 5.71903136777 24.8688067209
357 20 2 37.5651332935 5.99537221364 25.2417709768
358 20 2 38.4458598116 6.02247866503 25.786781116
359 20 2 39.2126658102 5.78789942802 26.4428536373
360 20 2 39.8075617428 5.30303515977 27.1388820002
361 21 1 76.5067197144 5.78676292327 26.2272778274
362 21 1 80.6511386163 3.81664075778 23.1515012295
363 21 2 76.0858719184 5.43440201423 26.3054475811
364 21 2 75.310193596 4.753180368 26.2176397224
365 21 2 74.6185373227 4.08306133867 25.8355375144
366 21 2 74.0831858888 3.46839923449 25.1959756713
367 21 2 73.762175316 2.94849361323 24.3592556654
368 21 2 73.6940050294 2.55400723248 23.4036494083
369 21 2 73.894128738 2.3041712213 22.4182649757
370 21 2 74.35354587 2.20503221415 21.4949246445
371 21 2 75.0396219512 2.24890121638 20.7197955375
372 21 2 75.89906315 2.41505443549 20.1655357205
373 21 2 76.8627738677 2.67162219946 19.8846716139
374 21 2 77.8521546175 2.97849379216 19.9048103499
375 21 2 78.7862661579 3.29097343792 20.226123456
376 21 2 79.5892068882 3.56385420203 20.8213312209
377 21 2 80.1970310763 3.75553848199 21.6381891672
378 21 2 80.5635773415 3.83182951783 22.6042499958
379 22 1 30.089479068 48.9197766706 6.7632453478
380 22 1 26.572318096 45.729725235 9.58656637035
381 22 2 30.1644518977 49.4274129661 6.97316450916
382 22 2 30.0693861554 50.3816754048 7.36533247564
383 22 2 29.6771355964 51.2636421605 7.741795159
384 22 2 29.023313756 51.9893933397 8.08712433252
385 22 2 28.1673756929 52.4892476813 8.38872950565
386 22 2 27.187198819 52.7141138171 8.63800551363
387 22 2 26.171984582 52.6399648187 8.83111685522
388 22 2 25.2141279915 52.2700281884 8.96934728844
389 22 2 24.4007960609 51.6344916801 9.05898281939
390 22 2 23.805982767 50.7877517671 9.11073874965
391 22 2 23.4837646973 49.8034555482 9.13878300514
392 22 2 23.4633721127 48.7677880122 9.15944476759
393 22 2 23.7465246883 47.7716165057 9.18972611322
394 22 2 24.3072747689 46.9022084183 9.24575231894
395 22 2 25.0943724287 46.2352769922 9.3413020865
396 22 2 26.035936765 45.8280802635 9.48655165061
397 23 1 24.3947735258 17.2308571177 46.7826020468
398 23 1 27.9480487288 17.1361515712 51.0114620885
399 23 2 24.0124862777 16.8293749644 46.789682203
400 23 2 23.4844577666 15.9390766251 46.8344568569
401 23 2 23.2368844125 14.93778694 46.9323160009
402 23 2 23.2883022189 13.9155545294 47.0930863932
403 23 2 23.6299949442 12.9643368869 47.3208606
404 23 2 24.2267885637 12.1696186998 47.6136239686
405 23 2 25.0202572883 11.6026201485 47.963438258
406 23 2 25.9340489184 11.3138053769 48.3571651883
407 23 2 26.8808441433 11.3282828212 48.7776639599
408 23 2 27.7703154629 11.6435166427 49.205353591
409 23 2 28.5173602978 12.2295578626 49.6199976726
410 23 2 29.0498578619 13.0317741318 50.0025488625
411 23 2 29.3152427797 13.975829323 50.3368849997
412 23 2 29.2852962791 14.9744590703 50.6112785965
413 23 2 28.9587182577 15.9354246831 50.8194657677
414 23 2 28.3612457833 16.7699204557 50.9612171665
415 24 1 43.6333399407 47.7209442377 68.0473171933
416 24 1 39.7561234961 49.1440396887 71.7161021475
417 24 2 43.7390567228 48.1025675321 67.659284706
418 24 2 43.702849992 48.8149713762 66.9078728038
419 24 2 43.3656319151 49.4829519315 66.1912585718
420 24 2 42.7569041751 50.061913795 65.5848727949
421 24 2 41.9309158352 50.5153753794 65.1540992292
422 24 2 40.9617186816 50.8182941127 64.9483150468
423 24 2 39.9364176012 50.9593490011 64.996390239
424 24 2 38.9472312037 50.9419725077 65.3040561936
425 24 2 38.0830863421 50.7840376928 65.8533832943
426 24 2 37.4215126675 50.5162291318 66.6044151571
427 24 2 37.0215760089 50.1792460985 67.4988105481
428 24 2 36.9184946805 49.8200929349 68.4651610311
429 24 2 37.1204294264 49.4877947312 69.4254996554
430 24 2 37.6077395912 49.2289288197 70.3024074353
431 24 2 38.3347733123 49.0833793757 71.0260698835
432 24 2 39.2340285661 49.080702081 71.540640415
433 25 1 58.5535023216 29.1525308753 9.7293659947
434 25 1 56.0408734667 33.2289657668 6.974848637
435 25 2 59.0965101061 29.1028993536 9.62906222598
436 25 2 60.042808548 29.0143390182 9.21659848568
437 25 2 60.8290307413 28.9538189999 8.54455533128
438 25 2 61.3889261668 28.9452412131 7.67283660068
439 25 2 61.6768733852 29.0077731769 6.67954602685
440 25 2 61.6720383097 29.1541009463 5.65386829133
441 25 2 61.3802731767 29.3892728128 4.68794007892
442 25 2 60.8335831306 29.7102391659 3.86845206503
443 25 2 60.0872090404 30.1061304569 3.26874729243
444 25 2 59.2145924417 30.5592479293 2.94213614884
445 25 2 58.3006815377 31.0466768132 2.91703726763
446 25 2 57.4341883968 31.542374945 3.19438724531
447 25 2 56.6995030854 32.0195464416 3.74755527329
448 25 2 56.1690017381 32.4530840728 4.52477046488
449 25 2 55.8964496674 32.821857719 5.45384063327
450 25 2 55.9121007982 33.1106403245 6.44873241637
451 26 1 59.1023467973 32.6514911616 20.7353682951
452 26 1 57.5902736903 27.4287821007 19.758160003
453 26 2 58.7311699412 32.9536756614 21.0151786909
454 26 2 57.8884966791 33.4371258498 21.3752171607
455 26 2 56.9146264276 33.7656613736 21.505950302
456 26 2 55.8915213387 33.8964957497 21.4080301599
457 26 2 54.9056311879 33.8048624265 21.1029499153
458 26 2 54.0400137084 33.4862721883 20.6310848385
459 26 2 53.3667641014 32.9569223358 20.0480121918
460 26 2 52.9404437501 32.2522203451 19.4194455099
461 26 2 52.7931070965 31.423556571 18.8152449875
462 26 2 52.9313799638 30.5336201538 18.3030499088
463 26 2 53.3358556311 29.6506850711 17.9421135079
464 26 2 53.9628637035 28.8423871477 17.7779021946
465 26 2 54.7484505523 28.169559231 17.8379514127
466 26 2 55.6142085172 27.6806864391 18.1293558581
467 26 2 56.4744225549 27.4074868723 18.6381228158
468 26 2 57.2438829361 27.3620205929 19.3304475593
469 27 1 69.0962553068 58.1858909195 65.1428445163
470 27 1 67.1053385917 55.742006755 69.6795472711
471 27 2 69.0360797895 58.7368566572 65.1287999056
472 27 2 68.700005139 59.7165372238 65.1558152317
473 27 2 68.103919976 60.556884313 65.2651278992
474 27 2 67.3054142704 61.1860488052 65.4651046258
475 27 2 66.3805280837 61.5514303098 65.7558483425
476 27 2 65.4168207203 61.624471551 66.1291888117
477 27 2 64.5053899312 61.4032612862 66.5694273227
478 27 2 63.7325685973 60.9127085112 67.054767587
479 27 2 63.1720557183 60.202272072 67.5593024119
480 27 2 62.8781989455 59.3414526226 68.0553750716
481 27 2 62.8810409389 58.4134578265 68.5161001444
482 27 2 63.1835810589 57.5076182006 68.9178140463
483 27 2 63.7615019829 56.7112448771 69.242231904
484 27 2 64.5653861637 56.1016714274 69.4781141721
485 27 2 65.5252201076 55.7392051137 69.6222910874
486 27 2 66.5567759164 55.6616300433 69.6799515846
487 28 1 52.2476897249 13.7478104864 6.30670764146
488 28 1 47.2382106682 13.7699275656 8.63535992905
489 28 2 52.2509044662 13.8317141023 5.75868260851
490 28 2 52.094681678 13.8181611477 4.73454357057
491 28 2 51.7291108549 13.5960709405 3.79088901281
492 28 2 51.1736451887 13.1988309942 3.01171744636
493 28 2 50.4650462785 12.6757932531 2.46603519732
494 28 2 49.6540334092 12.087775794 2.20156666456
495 28 2 48.8006606245 11.5015194215 2.24040436833
496 28 2 47.9688429611 10.9836044218 2.57699527608
497 28 2 47.2205307641 10.5943819476 3.17864694655
498 28 2 46.6100630784 10.382473172 3.98850735841
499 28 2 46.1792147902 10.3803375982 4.93074682003
500 28 2 45.9533889577 10.6013144628 5.91746964323
501 28 2 45.9393013901 11.0384069001 6.8567256003
502 28 2 46.1243685199 11.6649196874 7.66089094151
503 28 2 46.477854361 12.4368924434 8.25465506572
504 28 2 46.9536720122 13.2971064996 8.58188488034
505 29 1 31.6597386548 57.8602136938 39.3027618915
506 29 1 26.5641036284 59.6935685425 40.3942309644
507 29 2 31.7226690464 57.6288881654 38.8028520458
508 29 2 31.6504704204 57.0727445368 37.9316794831
509 29 2 31.3288331211 56.4102872173 37.2028792645
510 29 2 30.7760209075 55.713182763 36.671942312
511 29 2 30.0313685145 55.0562557239 36.3763248398
512 29 2 29.1516963961 54.5106685858 36.3320343203
513 29 2 28.2061316938 54.1374355003 36.5321704461
514 29 2 27.2698074818 53.9818610077 36.9475540742
515 29 2 26.4170145884 54.0694106493 37.5293868271
516 29 2 25.7144301854 54.4033898514 38.2136989346
517 29 2 25.2150403423 54.9646426444 38.9271799071
518 29 2 24.9533104874 55.7132976785 39.5938605909
519 29 2 24.9420439763 56.5924023904 40.1420375536
520 29 2 25.1712151004 57.5331140774 40.5108086601
521 29 2 25.608882903 58.4609747256 40.6556241399
522 29 2 26.2041025128 59.302697659 40.5523471789
523 30 1 18.0878793108 73.3588722491 23.5743919694
524 30 1 15.0630161578 70.1873736949 26.9373952235
525 30 2 18.0636242531 73.9023305018 23.6813798557
526 30 2 17.7860048289 74.880953027 23.8780405269
527 30 2 17.2294092671 75.7332829972 24.0708746883
528 30 2 16.4442246557 76.3818131362 24.2615151766
529 30 2 15.5016733633 76.7676119782 24.4517947758
530 30 2 14.4873213111 76.8556953126 24.6435791641
531 30 2 13.4932788675 76.6382149017 24.838596862
532 30 2 12.6098052346 76.1351738263 25.0382816826
533 30 2 11.9170815627 75.3926032588 25.2436420434
534 30 2 11.477902653 74.4783668444 25.4551690513
535 30 2 11.3319533794 73.4759751115 25.6727917399
536 30 2 11.4921915181 72.4769737103 25.8958835379
537 30 2 11.9436666811 71.572599271 26.1233193792
538 30 2 12.6448830041 70.8454634294 26.3535782497
539 30 2 13.5315813834 70.3620229967 26.5848818239
540 30 2 14.5225965217 70.1665225991 26.8153565542
541 31 1 35.9426476082 9.38318501959 0.822969995238
542 31 1 33.619053763 6.063364433 4.57765959316
543 31 2 35.8774256441 9.92542748607 0.918368061278
544 31 2 35.5289333427 10.8800793192 1.11996916372
545 31 2 34.9162485517 11.6827949491 1.35173407838
546 31 2 34.0969226644 12.2612368502 1.61165727594
547 31 2 33.1473418577 12.5635094481 1.89516667488
548 31 2 32.1557646963 12.5628892621 2.19554037446
549 31 2 31.2142776002 12.2602606792 2.50451933799
550 31 2 30.410401414 11.6840353448 2.81306018201
551 31 2 29.8191141157 10.8875625166 3.11215945644
552 31 2 29.4960167742 9.94426642292 3.39367428506
553 31 2 29.4722656607 8.94095384021 3.65106456689
554 31 2 29.751732438 7.96990188753 3.87998908888
555 31 2 30.3106512683 7.12044721372 4.07870121594
556 31 2 31.0997850063 6.47084320064 4.248208092
557 31 2 32.0489130329 6.0811273766 4.3921788416
558 31 2 33.0732316775 5.98764915609 4.5166101389
559 32 1 32.8212592266 73.5403077917 56.8850944066
560 32 1 29.5108277922 71.0413404648 60.5339568428
561 32 2 32.7450754496 74.08735709 56.8369832286
562 32 2 32.3768001891 75.0489462879 56.7222245337
563 32 2 31.7425104802 75.8589760252 56.5998382555
564 32 2 30.8966051165 76.4486916397 56.4991922386
565 32 2 29.9127710929 76.7694195131 56.4476727613
566 32 2 28.8772672333 76.7970035405 56.4681883489
567 32 2 27.8810619288 76.5340068952 56.5770817231
568 32 2 27.0115416122 76.009478402 56.7826402065
569 32 2 26.3445457185 75.2763048147 57.0843403554
570 32 2 25.9374541227 74.4063903299 57.4728956705
571 32 2 25.8239571176 73.4841027113 57.9311030358
572 32 2 26.0109846339 72.598583394 58.4354107375
573 32 2 26.4780745955 71.8356224805 58.958065139
574 32 2 27.1792379827 71.2698392025 59.4696403513
575 32 2 28.047150609 70.9578805771 59.9417203239
576 32 2 28.9992895401 70.9332581829 60.3494888915
577 33 1 22.0842370469 79.356512657 22.4889843579
578 33 1 20.9452019638 84.6877088008 21.5951511427
579 33 2 22.4381462217 79.1294902849 22.1276109685
580 33 2 22.9547677375 78.7992434234 21.2924527613
581 33 2 23.2528539915 78.6294238685 20.3148250637
582 33 2 23.3176528342 78.6498907097 19.2809816376
583 33 2 23.1556756402 78.8731589406 18.2823001584
584 33 2 22.7941038137 79.29325875 17.4069533839
585 33 2 22.2783112761 79.8862796542 16.7318724432
586 33 2 21.6677287546 80.6125498742 16.31573477
587 33 2 21.0304268298 81.4202523118 16.1936158111
588 33 2 20.4369114847 82.2501475399 16.3737919935
589 33 2 19.9536976727 83.0409733179 16.83698635
590 33 2 19.6372466569 83.735028481 17.5381255632
591 33 2 19.5288197176 84.2834322475 18.4104482781
592 33 2 19.6507172963 84.650579571 19.371590221
593 33 2 20.0042463705 84.8173864456 20.3310914828
594 33 2 20.5696013257 84.7830293618 21.1986416984