LAMMPS input file for bananas

648 atoms

2 atom types

0 85.0126855346 xlo xhi
0 85.0126855346 ylo yhi
0 85.0126855346 zlo zhi

Masses

 1 1
 2 1

Atoms

1 1 1 53.9009410162 43.2395023656 38.4686073699
2 1 1 55.6683065004 45.637210446 43.1210697575
3 1 2 53.4433413521 43.4632949831 38.2497443995
4 1 2 52.5041784287 43.8570962502 38.0591044865
5 1 2 51.5339604698 44.2034442996 38.1694228993
6 1 2 50.6239968021 44.4894872526 38.5738923834
7 1 2 49.8601047344 44.7078698791 39.2388946003
8 1 2 49.3147875396 44.8574040067 40.1070643493
9 1 2 49.0406259753 44.9431768195 41.102518252
10 1 2 49.065485688 44.9760871754 42.1377713197
11 1 2 49.3899773339 44.9718522037 43.1217109764
12 1 2 49.9874009196 44.9495747312 43.9679017259
13 1 2 50.8061794347 44.9300021101 44.6024635172
14 1 2 51.7745599586 44.9336351531 44.9708057128
15 1 2 52.8071537475 44.9788595382 45.0426028802
16 1 2 53.8127191902 45.0802700041 44.8145588732
17 1 2 54.7024782368 45.247340078 44.3107072676
18 1 2 55.3982082811 45.4835585898 43.5802207644
19 2 1 0.826987978597 62.2656751701 4.14254202298
20 2 1 1.7334347139 67.7114363831 3.94246656707
21 2 2 0.985809833595 62.0195775475 4.61327885664
22 2 2 1.48471448975 61.6730938172 5.45261977659
23 2 2 2.20142572179 61.5125116109 6.18336485941
24 2 2 3.06586726349 61.565688917 6.752015021
25 2 2 3.99449762573 61.8410001154 7.11984569611
26 2 2 4.89792467995 62.3265726756 7.2664364789
27 2 2 5.68905351178 62.9913693061 7.19153238844
28 2 2 6.29102488964 63.7880169201 6.91506710946
29 2 2 6.64422077833 64.6571245663 6.4753460903
30 2 2 6.71169836357 65.5326967551 5.9255551037
31 2 2 6.48255729077 66.348148771 5.3289125057
32 2 2 5.97293320323 67.0423756916 4.75290705153
33 2 2 5.22452702138 67.5653219381 4.26314647591
34 2 2 4.30080401535 67.8825437072 3.91737752337
35 2 2 3.2812091152 67.9783484318 3.76022248689
36 2 2 2.25392571789 67.8572251168 3.81911200509
37 3 1 20.1713778983 50.6228911084 1.80495106548
38 3 1 18.3995933809 47.1348341368 5.70523685604
39 3 2 19.9301258365 51.1220340707 1.81089529632
40 3 2 19.280547714 51.9290350477 1.82663369278
41 3 2 18.4241861795 52.5110761749 1.86300757961
42 3 2 17.4374018884 52.8183929213 1.93555543621
43 3 2 16.4084431819 52.8262611487 2.05651858133
44 3 2 15.4294024864 52.5372506512 2.23372540957
45 3 2 14.5878223349 51.9809909253 2.46987785413
46 3 2 13.9587160993 51.2114705202 2.76230511285
47 3 2 13.5977307221 50.302116126 3.10320708466
48 3 2 13.536074646 49.3390999272 3.48036532794
49 3 2 13.7776732479 48.4134852386 3.87825673885
50 3 2 14.2988110516 47.6129263269 4.27946844073
51 3 2 15.0502933295 47.0136789593 4.66628492125
52 3 2 15.9619300709 46.6736498936 5.02230275408
53 3 2 16.948933614 46.6271188324 5.33392572726
54 3 2 17.9196468143 46.8816139195 5.59160410166
55 4 1 54.1214372171 29.7497837731 25.8328002854
56 4 1 51.0200558324 32.1773760286 29.7065865998
57 4 2 54.6550795361 29.6841316082 25.9680676379
58 4 2 55.6387689213 29.7897950785 26.2757044947
59 4 2 56.5249031117 30.1790409087 26.6454393881
60 4 2 57.2314855782 30.8118868463 27.0622094068
61 4 2 57.6928854512 31.6261471405 27.5066645133
62 4 2 57.8658195994 32.5431006065 27.9569312484
63 4 2 57.7332977711 33.4746658515 28.3906064384
64 4 2 57.3061712108 34.3314296581 28.7867991849
65 4 2 56.6221435964 35.03079676 29.1280350136
66 4 2 55.7423344508 35.5045181799 29.4018486268
67 4 2 54.7457082597 35.7049119413 29.6019200812
68 4 2 53.7218770707 35.6092091532 29.7286508344
69 4 2 52.7629325938 35.2216293338 29.7891271528
70 4 2 51.955052289 34.5729958125 29.7964742174
71 4 2 51.3706445207 33.7179262658 29.7686597988
72 4 2 51.0617487286 32.7298544624 29.7268565428
73 5 1 67.4324727064 47.5798062583 28.834274662
74 5 1 64.941134186 42.7201603028 29.6679800216
75 5 2 67.1102115673 48.0240422507 28.9129113544
76 5 2 66.360373814 48.7390055897 28.9174697276
77 5 2 65.4706365297 49.2427501615 28.7499615711
78 5 2 64.5116218488 49.4839428721 28.4408225583
79 5 2 63.5602663551 49.435181528 28.0333976363
80 5 2 62.692808518 49.0954924726 27.5799902504
81 5 2 61.9778397597 48.4904193327 27.1370950243
82 5 2 61.4700525307 47.6696947851 26.7602484266
83 5 2 61.2052552384 46.702707556 26.49896677
84 5 2 61.1971084073 45.6721778243 26.3922329315
85 5 2 61.4358795582 44.6666174978 26.4649431678
86 5 2 61.8893302977 43.77226259 26.7256378876
87 5 2 62.5056547618 43.0652130377 27.1657232164
88 5 2 63.2182015819 42.6044963951 27.7602543053
89 5 2 63.9515489786 42.4266876301 28.4702089869
90 5 2 64.6283792558 42.5425754137 29.2460445421
91 6 1 7.96788091112 13.8743689218 25.4905206541
92 6 1 2.9114874289 11.7798428704 24.7396300932
93 6 2 7.98724632947 14.4263259743 25.5389972547
94 6 2 7.89477829189 15.4527779226 25.432714278
95 6 2 7.62965623366 16.3933531411 25.0885071257
96 6 2 7.2001767208 17.1658955239 24.5479744013
97 6 2 6.62961706203 17.7035647087 23.8706092601
98 6 2 5.95411364429 17.9609283979 23.128376766
99 6 2 5.21936819766 17.9181033901 22.3991544689
100 6 2 4.47648220482 17.5825678816 21.7596340741
101 6 2 3.77729913748 16.9884798484 21.2783311982
102 6 2 3.16967906248 16.1935636382 21.0093403537
103 6 2 2.69313632467 15.2738485501 20.9874043791
104 6 2 2.37523791992 14.3167389675 21.2247477217
105 6 2 2.22909083718 13.4130476819 21.7099622122
106 6 2 2.25214739144 12.6487185499 22.4090468883
107 6 2 2.42643743842 12.0969929402 23.2685070924
108 6 2 2.72020630519 11.8117339788 24.2202303657
109 7 1 42.137496644 70.1608989476 13.3363286953
110 7 1 40.6811031452 72.1219821165 8.38142588673
111 7 2 42.4802479691 69.7253057681 13.3236125969
112 7 2 42.9622349872 68.82494121 13.1490211076
113 7 2 43.2098247847 67.8887686311 12.780605302
114 7 2 43.2119384542 67.0066249582 12.2372195422
115 7 2 42.9798715816 66.263422528 11.5536662337
116 7 2 42.5462646829 65.7314095542 10.7775236795
117 7 2 41.9621281091 65.463584896 9.96480944517
118 7 2 41.2921925886 65.4888673537 9.17487450675
119 7 2 40.6090091946 65.8094597974 8.4649935686
120 7 2 39.9863365085 66.4006483814 7.88514462683
121 7 2 39.4924177223 67.213055145 7.47345360866
122 7 2 39.1837604544 68.1771386815 7.25271929601
123 7 2 39.0999862307 69.2095326519 7.22833527748
124 7 2 39.2602190888 70.2206444039 7.38779833714
125 7 2 39.661342473 71.1228211022 7.70184808928
126 7 2 40.2782833 71.8383390507 8.12713398434
127 8 1 2.26911324443 49.9747215959 21.127244024
128 8 1 4.53223083681 54.410004411 18.7346395488
129 8 2 2.63209365861 49.6044054126 21.3234396697
130 8 2 3.40456266558 48.9308469712 21.4752970713
131 8 2 4.24865413038 48.3448919519 21.3425705644
132 8 2 5.10123653125 47.911342287 20.9443395398
133 8 2 5.89840442026 47.6811085678 20.3238834153
134 8 2 6.58130323414 47.6865696809 19.5447368325
135 8 2 7.1014937304 47.9386215585 18.6848986444
136 8 2 7.42536709484 48.4256840439 17.8297225279
137 8 2 7.5372082951 49.1147563918 17.0641372247
138 8 2 7.44062846386 49.9544251975 16.4649055132
139 8 2 7.15823575378 50.879550592 16.0936274866
140 8 2 6.72957466478 51.8172035664 15.9911258691
141 8 2 6.2075216686 52.6933132564 16.1737251333
142 8 2 5.65346565967 53.4394183039 16.6317635688
143 8 2 5.13171252153 53.998906926 17.3304739206
144 8 2 4.70362381736 54.3321769285 18.213152332
145 9 1 84.3557152161 48.615172379 73.051115649
146 9 1 81.1918741767 44.1001374153 73.4012016605
147 9 2 84.3090388416 48.9667261804 73.477276216
148 9 2 83.9914266398 49.6026729135 74.2310296592
149 9 2 83.3993832807 50.1501570942 74.8815646266
150 9 2 82.585179779 50.5472016477 75.384434681
151 9 2 81.6213364526 50.7455416688 75.708652647
152 9 2 80.5940128896 50.7150236396 75.8395150097
153 9 2 79.5951547319 50.4463538416 75.7799421007
154 9 2 78.7141130756 49.9519454537 75.5502119175
155 9 2 78.0295003579 49.2647871237 75.1861118385
156 9 2 77.6020250432 48.4354361416 74.7356766989
157 9 2 77.4689582087 47.5274102777 74.2548105438
158 9 2 77.6407363856 46.6113983071 73.8021911242
159 9 2 78.1000102972 45.7588169177 73.4339215767
160 9 2 78.8032261989 45.035301269 73.1984167722
161 9 2 79.6845956856 44.4947225235 73.1319904304
162 9 2 80.6620921294 44.1742776338 73.255545221
163 10 1 35.4127951366 51.5795353942 65.6484626378
164 10 1 37.4853552566 46.8970867391 63.5755033514
165 10 2 35.6296899205 51.736140274 66.1340686018
166 10 2 35.9869804392 51.8071420435 67.1039924366
167 10 2 36.2689517674 51.5812972358 68.0750415105
168 10 2 36.4683910291 51.0744913239 68.9564164363
169 10 2 36.5856079253 50.3282186343 69.6654913852
170 10 2 36.6284065061 49.4058002505 70.1353452112
171 10 2 36.6113738521 48.3866124649 70.3208611339
172 10 2 36.5545505009 47.3588518425 70.2028390132
173 10 2 36.4816038061 46.4114963393 69.7897453899
174 10 2 36.4176707206 45.6261951998 69.1169417841
175 10 2 36.3870666311 45.0698268461 68.2434615863
176 10 2 36.4110690755 44.788403089 67.2466293222
177 10 2 36.5059783519 44.802875274 66.2150127286
178 10 2 36.6816317902 45.1072246224 65.2403500408
179 10 2 36.9405071059 45.6690108269 64.4091882981
180 10 2 37.2774965626 46.4323288988 63.794994812
181 11 1 43.816603153 48.5081798526 76.4704947041
182 11 1 40.8857246306 45.3143259989 79.8950004653
183 11 2 43.7774021043 49.0525745482 76.5678563046
184 11 2 43.4729651132 50.0264596826 76.7476224707
185 11 2 42.8931646629 50.8663075639 76.9263316913
186 11 2 42.090524702 51.4960810813 77.1068986343
187 11 2 41.1378804044 51.8588908414 77.2920686411
188 11 2 40.1217394386 51.9221804834 77.484167496
189 11 2 39.1343970247 51.6806941047 77.6848894375
190 11 2 38.2655234717 51.1569553225 77.8951427328
191 11 2 37.5939909686 50.3992143063 78.1149668915
192 11 2 37.1806845952 49.4770499034 78.3435290647
193 11 2 37.0629528096 48.4750277139 78.5791999569
194 11 2 37.2512032364 47.4849921611 78.8197023317
195 11 2 37.7279540393 46.5976951189 79.0623185761
196 11 2 38.4494273437 45.8945241203 79.3041384036
197 11 2 39.3495394732 45.4400841016 79.5423241187
198 11 2 40.3459242999 45.2763088351 79.7743692657
199 12 1 38.9803858545 17.1300941288 17.1198065857
200 12 1 35.2835566778 13.0536585529 16.6359490709
201 12 2 38.831386204 17.5413343849 17.4604855314
202 12 2 38.3544219889 18.3064193093 17.970975695
203 12 2 37.6510741644 18.997550657 18.2889211448
204 12 2 36.7766104811 19.5421156136 18.3994303565
205 12 2 35.801895443 19.8808604991 18.3065190649
206 12 2 34.8069311969 19.9732915834 18.0327442395
207 12 2 33.8735655512 19.8013659806 17.6171480779
208 12 2 33.078031766 19.3711362104 17.1116994131
209 12 2 32.4840000961 18.7121985271 16.576556894
210 12 2 32.1367744168 17.8749952998 16.0745856846
211 12 2 32.0591628972 16.9262173257 15.6656274728
212 12 2 32.2493990963 15.9427251416 15.4010460605
213 12 2 32.6813029693 15.0045433923 15.31904569
214 12 2 33.3066671091 14.187566797 15.4411888298
215 12 2 34.0596507221 13.5566425494 15.770430813
216 12 2 34.8627808411 13.1596596689 16.2908504666
217 13 1 26.6413018792 37.4800798339 21.505232122
218 13 1 21.9970059769 37.3118179824 18.518562642
219 13 2 27.0952319599 37.6275239046 21.2231163375
220 13 2 27.8717945352 37.7365814014 20.5459848583
221 13 2 28.4872513775 37.6325868392 19.7190338213
222 13 2 28.8785674011 37.3385355161 18.8058768796
223 13 2 29.0031373569 36.8947458961 17.8779851238
224 13 2 28.8426691868 36.3551846889 17.0081726835
225 13 2 28.4048512964 35.7825479283 16.263959914
226 13 2 27.7226517765 35.2425463962 15.7014190962
227 13 2 26.8513134507 34.7979162609 15.3600635983
228 13 2 25.863318639 34.5027008428 15.2592463377
229 13 2 24.8417825883 34.3973247099 15.3963958143
230 13 2 23.8728777398 34.504909087 15.747250496
231 13 2 23.0379793415 34.8291644176 16.2680701924
232 13 2 22.4062483113 35.3540521667 16.8996228565
233 13 2 22.0283274048 36.0452466909 17.5725834269
234 13 2 21.9317252629 36.8532639285 18.2138526225
235 14 1 70.033571095 64.5566440997 46.3088374055
236 14 1 75.1172150621 63.8970107383 48.3678271834
237 14 2 69.9770400845 64.4141320866 45.7760371061
238 14 2 70.060091078 64.2852575322 44.7513694074
239 14 2 70.3904185728 64.3316868547 43.7704626456
240 14 2 70.949135713 64.5336305497 42.9216376268
241 14 2 71.6965385368 64.8571243933 42.2811762592
242 14 2 72.5757248868 65.2571251902 41.9063686612
243 14 2 73.5177808894 65.6816163412 41.8302913199
244 14 2 74.4480622702 66.0763490165 42.0587922582
245 14 2 75.29299798 66.3897867919 42.5699580027
246 14 2 75.9867959996 66.5778030561 43.3161109386
247 14 2 76.4774401061 66.6077030332 44.2281549963
248 14 2 76.7314310129 66.4612038243 45.2218735743
249 14 2 76.7368397401 66.1361008449 46.2056056566
250 14 2 76.5043949089 65.6464687668 47.0886004695
251 14 2 76.0665048567 65.0213786494 47.7892891725
252 14 2 75.4743037038 64.3022481902 48.2427196395
253 15 1 77.1298532609 48.1332696131 36.5934342858
254 15 1 76.0484923389 46.7058361477 31.3674335855
255 15 2 76.9137689252 48.6184194878 36.7525529427
256 15 2 76.6108146473 49.6041420017 36.8526521051
257 15 2 76.4484725141 50.613033022 36.6816727141
258 15 2 76.4244937019 51.5529044216 36.246337464
259 15 2 76.5240179407 52.3378590273 35.5774643788
260 15 2 76.720927987 52.8961199177 34.7271578323
261 15 2 76.9802301415 53.1765726976 33.7640593731
262 15 2 77.2612438311 53.1534244387 32.7670912314
263 15 2 77.5213095339 52.8285546356 31.8182627683
264 15 2 77.7196770815 52.2313438955 30.9951955419
265 15 2 77.8212199271 51.4159959741 30.3640483096
266 15 2 77.7996368367 50.4565972481 29.9734868346
267 15 2 77.6398491766 49.4403639398 29.8502481309
268 15 2 77.3393752898 48.4596925922 29.9967034569
269 15 2 76.9085566932 47.6037383703 30.3906421805
270 15 2 76.3696154755 46.9502888065 30.9872962198
271 16 1 62.2182891078 52.8001632232 19.5922457116
272 16 1 65.2144362837 48.1808046425 20.0423784305
273 16 2 62.3086978981 53.093138851 19.1303224278
274 16 2 62.703466167 53.6180291553 18.3290121298
275 16 2 63.3610115335 54.0597661241 17.6612153399
276 16 2 64.2236365377 54.364177008 17.1747360217
277 16 2 65.2149512591 54.4896059628 16.9008515358
278 16 2 66.2468360533 54.410710869 16.8514617922
279 16 2 67.2274734223 54.120773198 17.0180046052
280 16 2 68.069716934 53.6323103879 17.3722361135
281 16 2 68.6990343861 52.9759349128 17.868805133
282 16 2 69.0603012181 52.1975640372 18.449386796
283 16 2 69.1228249667 51.3542345806 19.0479987066
284 16 2 68.8831428023 50.5089041632 19.5970150604
285 16 2 68.3653371564 49.7247127877 20.0333305551
286 16 2 67.6188406728 49.0592277964 20.3041122706
287 16 2 66.7139305536 48.5591967619 20.3716152484
288 16 2 65.7353229806 48.2562865711 20.2166228436
289 17 1 20.1681884673 31.751815629 30.3711344441
290 17 1 18.0766525792 27.7132020646 33.5069069435
291 17 2 20.023792156 32.2648090265 30.5240038898
292 17 2 19.5363797878 33.1340550413 30.8073597795
293 17 2 18.806468299 33.8165008506 31.0811241801
294 17 2 17.9009112911 34.2485388381 31.3395031536
295 17 2 16.9025719852 34.3893853912 31.5781051023
296 17 2 15.9027704609 34.2247982184 31.7943410516
297 17 2 14.9929600751 33.7683744957 31.9876606279
298 17 2 14.2563917331 33.0603115209 32.1596022238
299 17 2 13.7605257907 32.1637428369 32.3136527777
300 17 2 13.5508832234 31.1589837781 32.4549299485
301 17 2 13.6468965112 30.1362109426 32.5897156551
302 17 2 14.0401384196 29.1872428359 32.7248834956
303 17 2 14.69509012 28.3971708599 32.8672722382
304 17 2 15.5523786357 27.8366034587 33.0230624845
305 17 2 16.5341885299 27.5552303479 33.1972133255
306 17 2 17.5513545751 27.5772934299 33.3930103326
307 18 1 48.1492183983 53.4147768807 74.8423382481
308 18 1 51.7354860154 53.0075787378 70.6601300619
309 18 2 48.2660709974 53.0978072821 75.2819486798
310 18 2 48.5025755115 52.335184108 75.9421922109
311 18 2 48.7597495461 51.4142182123 76.3411074226
312 18 2 49.0333087884 50.4201269532 76.4430776173
313 18 2 49.3174754577 49.44479287 76.2395518418
314 18 2 49.6055049347 48.5783888356 75.7498242841
315 18 2 49.8903005156 47.9011590403 75.0192756596
316 18 2 50.1650602574 47.4761049479 74.1152368806
317 18 2 50.4238969571 47.3432428811 73.1208520229
318 18 2 50.6623747545 47.5159566402 72.1274999661
319 18 2 50.8779134488 47.9797776058 71.2264654527
320 18 2 51.0700236772 48.6937035148 70.5006187279
321 18 2 51.240351519 49.5939357068 70.0168621383
322 18 2 51.3925284597 50.5996942017 69.8200321615
323 18 2 51.5318403911 51.620580579 69.9288126814
324 18 2 51.664745816 52.5648175522 70.3340320018
325 19 1 21.3349732902 62.4153163578 36.1228842048
326 19 1 16.350640694 64.7339528181 35.576674907
327 19 2 21.7595376246 62.7336045006 35.9622001293
328 19 2 22.4243575154 63.3548662411 35.4667222045
329 19 2 22.8644563327 63.9751792739 34.7631777614
330 19 2 23.0340782329 64.5553570162 33.9217074949
331 19 2 22.9121206206 65.0598711093 33.02502367
332 19 2 22.5040575934 65.4600897343 32.1608711202
333 19 2 21.8414409929 65.736887325 31.4140295402
334 19 2 20.9790245386 65.882387813 30.8585860431
335 19 2 19.9897731724 65.9006825096 30.5511823186
336 19 2 18.9582124998 65.8074571943 30.525851894
337 19 2 17.9727245061 65.6285623973 30.7909180691
338 19 2 17.1174917754 65.3976571932 31.3282352699
339 19 2 16.4648244726 65.1531412664 32.0948429691
340 19 2 16.0685694651 64.9346548819 33.0268814232
341 19 2 15.9592023251 64.7794657818 34.0454123177
342 19 2 16.1410495624 64.7190723299 35.0636137833
343 20 1 39.2402705987 37.7296662966 57.3945972781
344 20 1 38.2022716915 32.6072004263 59.1837011704
345 20 2 38.7994152198 38.0655065306 57.3791227785
346 20 2 37.8770576237 38.5143253779 57.2332868488
347 20 2 36.8931308951 38.6910615215 56.9610690325
348 20 2 35.9278651084 38.5743661575 56.6031665818
349 20 2 35.0597894428 38.1696359796 56.2080866746
350 20 2 34.3585744579 37.5085212847 55.8277251145
351 20 2 33.8786818082 36.6460411336 55.512636167
352 20 2 33.6544002087 35.6555685099 55.3074246736
353 20 2 33.6967201106 34.6221425692 55.2466804393
354 20 2 33.9923319507 33.6347175468 55.3518254648
355 20 2 34.5048392827 32.7780548177 55.6291613881
356 20 2 35.1780762159 32.124997123 56.0692951069
357 20 2 35.9412267859 31.7298291493 56.6479949351
358 20 2 36.7152796408 31.6233296243 57.3283992562
359 20 2 37.4202297145 31.8099659182 58.0643763609
360 20 2 37.9823704747 32.2674868549 58.804729229
361 21 1 45.3009191395 58.0562041061 64.8922234344
362 21 1 40.2343440044 55.8902956275 64.4964357086
363 21 2 45.3217739634 58.60924401 64.8591548834
364 21 2 45.2304479453 59.6093413174 64.6043707685
365 21 2 44.9643277777 60.4901822258 64.1281887007
366 21 2 44.531893597 61.1765647613 63.483727914
367 21 2 43.9567846176 61.6110113109 62.7394457978
368 21 2 43.2756444804 61.7590075535 61.9728981888
369 21 2 42.5347812829 61.6121483478 61.263670364
370 21 2 41.78594672 61.1889038385 60.6861230552
371 21 2 41.0816190551 60.5329359522 60.3026146671
372 21 2 40.470219867 59.709118729 60.1578174754
373 21 2 39.991700552 58.7976252276 60.2746458683
374 21 2 39.6739008614 57.8866199652 60.6521677613
375 21 2 39.530011382 57.0642229572 61.2656895539
376 21 2 39.5573712499 56.4104778134 62.0690068858
377 21 2 39.7377106807 55.990055977 62.9986160405
378 21 2 40.038816212 55.8463620955 63.9795021392
379 22 1 50.3981947984 54.6906540527 53.321372914
380 22 1 46.0440854623 54.7338077279 56.7210582981
381 22 2 50.8608927554 54.9122428392 53.5315885135
382 22 2 51.5832917432 55.5058945823 53.9778701753
383 22 2 52.0627382778 56.2795024481 54.4729579468
384 22 2 52.2547740739 57.156582336 54.9899716163
385 22 2 52.1411375667 58.0512189468 55.5000324852
386 22 2 51.7314284048 58.8758967331 55.9748955841
387 22 2 51.0622324681 59.5494767072 56.3895241262
388 22 2 50.1937871624 60.0045920434 56.7243715437
389 22 2 49.2044909409 60.1937883835 56.9671631047
390 22 2 48.1837574948 60.0938491753 57.1140147231
391 22 2 47.2238659342 59.7079117991 57.1697869817
392 22 2 46.4115497943 59.0651816035 57.1476421038
393 22 2 45.8200915046 58.2182699166 57.0678442512
394 22 2 45.5026428924 57.2383986633 56.9559125005
395 22 2 45.4873805348 56.208908678 56.8402948471
396 22 2 45.7749375398 55.2176634097 56.7497752465
397 23 1 49.8427172724 47.2184988448 67.1940741994
398 23 1 48.4336860272 45.3537233687 72.1995945954
399 23 2 49.7465149095 47.758027257 67.1101946079
400 23 2 49.3525441174 48.7133209923 67.0350221032
401 23 2 48.7165642059 49.5296433137 67.0859870997
402 23 2 47.9011503866 50.1400726667 67.2755294942
403 23 2 46.9852327921 50.4964540906 67.6034582243
404 23 2 46.0569022056 50.5737884143 68.0569686826
405 23 2 45.2053808215 50.3725108642 68.6118098232
406 23 2 44.5128898804 49.9184513942 69.2344945792
407 23 2 44.0471554232 49.2604803546 69.8853521195
408 23 2 43.8552352435 48.4660540904 70.5221437389
409 23 2 43.9592296951 47.6150664755 71.1039128035
410 23 2 44.3542673041 46.7925667997 71.594717838
411 23 2 45.008948791 46.0810077534 71.9669084954
412 23 2 45.8682090304 45.552730085 72.2036458123
413 23 2 46.8583360907 45.2633689353 72.300437035
414 23 2 47.8936898791 45.2467828429 72.2655451224
415 24 1 69.977684982 73.7041640963 39.541316169
416 24 1 70.5687965035 69.5286112717 35.9729360268
417 24 2 70.0057761374 74.2098791161 39.3158282672
418 24 2 70.2559922644 75.0716572749 38.7979669866
419 24 2 70.7345487993 75.7541354301 38.1826156872
420 24 2 71.3886351982 76.1924624416 37.5091987101
421 24 2 72.149441839 76.3440408937 36.8224329281
422 24 2 72.9384318351 76.1924097354 36.1682519218
423 24 2 73.6744994622 75.7487446612 35.5896192564
424 24 2 74.2813627285 75.0508394766 35.1226124679
425 24 2 74.6945162745 74.1596612937 34.7931346919
426 24 2 74.8671108637 73.1537935415 34.6145536623
427 24 2 74.7742235658 72.1222732971 34.5864832776
428 24 2 74.4151294148 71.1564757935 34.6948187934
429 24 2 73.813367488 70.3417858116 34.913022432
430 24 2 73.0145953817 69.7498150855 35.2045422302
431 24 2 72.0824276435 69.4318750844 35.5261436526
432 24 2 71.0926374765 69.4143001094 35.831850304
433 25 1 26.332387553 34.2464915689 49.7560838974
434 25 1 26.4508820132 30.2390425557 45.9555178171
435 25 2 25.9049617695 34.5969374661 49.7127657636
436 25 2 25.1745137673 35.2651189399 49.4071037845
437 25 2 24.579175563 35.8868944402 48.8305470563
438 25 2 24.1589590541 36.393748703 48.0305677734
439 25 2 23.9379142639 36.7276412282 47.0750024991
440 25 2 23.9219372456 36.8462965153 46.0458690437
441 25 2 24.0982326734 36.7270573632 45.031890761
442 25 2 24.4364801017 36.3689500129 44.1204096508
443 25 2 24.891597593 35.7927729034 43.3894253701
444 25 2 25.4078508159 35.039200949 42.9004857719
445 25 2 25.9239330805 34.1650781305 42.6930769836
446 25 2 26.3785532793 33.2382363174 42.7810243515
447 25 2 26.7160224077 32.3313125747 43.151232298
448 25 2 26.8913294682 31.5151284888 43.7648779477
449 25 2 26.8742441023 30.8522349684 44.5609497298
450 25 2 26.6520720071 30.3912108974 45.4618084185
451 26 1 28.536556913 11.1429196527 40.0334186844
452 26 1 27.6510299655 7.44378400092 44.0396923291
453 26 2 28.1694087657 11.557864428 40.0133025376
454 26 2 27.3258686246 12.1585969003 39.9815135706
455 26 2 26.3434381075 12.4876022109 39.9755306112
456 26 2 25.3085529407 12.5182542204 40.0145582553
457 26 2 24.3124299517 12.2511208953 40.1136985025
458 26 2 23.4427528991 11.7139125394 40.2825742493
459 26 2 22.7756803325 10.958956074 40.5244521879
460 26 2 22.3689039438 10.0584255781 40.8359450558
461 26 2 22.2563901242 9.09776381482 41.2073203757
462 26 2 22.4452840183 8.16789435157 41.6233875449
463 26 2 22.9152582631 7.35693411983 42.064882418
464 26 2 23.6203657727 6.74216179246 42.5102231825
465 26 2 24.4932276929 6.38297403924 42.9374774831
466 26 2 25.4511748031 6.31547167908 43.3263614974
467 26 2 26.4037825953 6.54916918697 43.6600887518
468 26 2 27.2611132257 7.06612747492 43.9269001643
469 27 1 47.6349741347 30.7237869948 59.1130046492
470 27 1 43.9353619888 26.7102567771 58.2630421654
471 27 2 47.4188950807 31.2149302161 59.2525387548
472 27 2 46.8792176447 32.0963978265 59.3247407498
473 27 2 46.1945521867 32.8555905251 59.1564859785
474 27 2 45.4127727659 33.4180717983 58.7745360265
475 27 2 44.5906051199 33.7273348527 58.2251302237
476 27 2 43.7884562646 33.7499530591 57.5697710535
477 27 2 43.0649085571 33.4786266999 56.8796183655
478 27 2 42.4713800696 32.9328483189 56.2290033451
479 27 2 42.0474379702 32.1571260284 55.6886534256
480 27 2 41.8171920807 31.2169267134 55.3192456705
481 27 2 41.7870973314 30.1927088998 55.1658762222
482 27 2 41.9453654107 29.1725891755 55.2539499089
483 27 2 42.2630392391 28.2443105982 55.586864662
484 27 2 42.6966323288 27.4872451507 56.1457018046
485 27 2 43.1920924613 26.9651591965 56.8909504374
486 27 2 43.6897284024 26.7204013464 57.7661087523
487 28 1 61.6004124178 42.5021610483 11.3746944852
488 28 1 59.0483942676 42.7006730271 16.2701809183
489 28 2 62.1339040827 42.6528180239 11.3831032461
490 28 2 63.0481851807 43.1224822471 11.5133169258
491 28 2 63.7869345788 43.7918674011 11.7954921438
492 28 2 64.2887231751 44.592463876 12.2205844869
493 28 2 64.5137202116 45.4438025007 12.7665230281
494 28 2 64.4473237409 46.260789093 13.4002220323
495 28 2 64.1014915554 46.9614605663 14.0805966328
496 28 2 63.5136512655 47.4744556465 14.7623076072
497 28 2 62.743288874 47.7455192609 15.399893926
498 28 2 61.8665267851 47.7424477433 15.9519164041
499 28 2 60.9691854511 47.4580241123 16.384734772
500 28 2 60.1389610675 46.9106758795 16.6755738961
501 28 2 59.4574322992 46.1427954311 16.8145996713
502 28 2 58.9926246032 45.2168760755 16.8058153738
503 28 2 58.7928098899 44.2098159451 16.6666967725
504 28 2 58.8821066677 43.2059089369 16.42659926
505 29 1 72.0778478693 45.7994361837 56.2955925021
506 29 1 70.2319318643 49.0819764513 60.3373142336
507 29 2 71.9026433462 45.9339320584 55.7870693238
508 29 2 71.3634548582 46.1865107009 54.9391720335
509 29 2 70.5934941957 46.4366103839 54.2925958679
510 29 2 69.6633371258 46.6806318072 53.9069647209
511 29 2 68.6581608899 46.9155296879 53.8181180457
512 29 2 67.669980526 47.1390903295 54.034844184
513 29 2 66.7892619436 47.3501333948 54.5380793322
514 29 2 66.0966761981 47.5486194898 55.2826451563
515 29 2 65.6557465398 47.7356537552 56.2013666762
516 29 2 65.507058439 47.9133851352 57.2111950856
517 29 2 65.6645603295 48.084810507 58.2207774288
518 29 2 66.1142922453 48.2535015238 59.1387831782
519 29 2 66.815658235 48.4232790678 59.8822287681
520 29 2 67.7051265739 48.5978649872 60.3840413248
521 29 2 68.7020205108 48.7805428598 60.5991721796
522 29 2 69.7158717383 48.9738587032 60.5087029349
523 30 1 75.712186756 63.2899064062 61.6269366788
524 30 1 80.1238368389 66.102604718 63.4000872122
525 30 2 75.8231303973 62.886317415 61.2633585954
526 30 2 76.1503139903 62.301527008 60.4731554016
527 30 2 76.6204192222 61.9772220116 59.6087033489
528 30 2 77.2070688773 61.9358976781 58.7557177143
529 30 2 77.8732630275 62.1742563291 57.9988686415
530 30 2 78.5747514764 62.6635079293 57.4140636836
531 30 2 79.2640670469 63.3519942219 57.0615290323
532 30 2 79.8948520869 64.1698972403 56.9803200618
533 30 2 80.4260838459 65.0356030294 57.1847615355
534 30 2 80.8258135888 65.8631405391 57.6631419427
535 30 2 81.0740786378 66.570017656 58.3787809705
536 30 2 81.1647219172 67.0847401392 59.2733728173
537 30 2 81.1059531543 67.3533281287 60.2723006103
538 30 2 80.9196005845 67.3442362662 61.2914375339
539 30 2 80.6391213666 67.0512289694 62.2448147643
540 30 2 80.3065520514 66.4939487891 63.0524572981
541 31 1 65.575819674 42.2038793121 21.3014691244
542 31 1 66.6604954112 38.9295891433 16.98632214
543 31 2 65.6008528301 42.7472985103 21.1944620954
544 31 2 65.8565095209 43.7076206739 20.9014245385
545 31 2 66.3558817011 44.5200715203 20.4964540964
546 31 2 67.0458725681 45.1114527944 19.9988289331
547 31 2 67.8560109358 45.4287161416 19.4362724426
548 31 2 68.7048744941 45.4437983238 18.842426336
549 31 2 69.5075112357 45.1561791083 18.2537842893
550 31 2 70.1831826039 44.5929286859 17.7063656424
551 31 2 70.6627225963 43.8062402951 17.2324323321
552 31 2 70.8948420615 42.868672948 16.8575483037
553 31 2 70.8508035677 41.8665378704 16.5982494249
554 31 2 70.5270407428 40.8920314642 16.4605362859
555 31 2 69.9454833402 40.0348318516 16.4393272619
556 31 2 69.1515583996 39.3739249541 16.5189216893
557 31 2 68.2100496946 38.9704051371 16.6744309392
558 31 2 67.1991928642 38.8619066212 16.8740469497
559 32 1 46.1625082915 44.21033338 81.1104682709
560 32 1 43.0842333615 40.9346726823 84.3217392825
561 32 2 46.1558600004 44.7469593959 81.2496440856
562 32 2 45.9101156997 45.7198863071 81.5074676209
563 32 2 45.3817038819 46.5751874115 81.7578492949
564 32 2 44.618678072 47.2339541076 81.9971567637
565 32 2 43.6904762333 47.6351913799 82.2227670677
566 32 2 42.6815916828 47.7413773313 82.4333057071
567 32 2 41.683871751 47.5418832042 82.6287719242
568 32 2 40.7881461431 47.0539421633 82.8105387723
569 32 2 40.0759480544 46.3210785382 82.9812279656
570 32 2 39.6120826374 45.4091406977 83.1444709167
571 32 2 39.4387201852 44.4002991465 83.3045777435
572 32 2 39.5715524221 43.3855569038 83.4661444133
573 32 2 39.9983622451 42.4564548207 83.6336338323
574 32 2 40.6801372796 41.696727877 83.8109690643
575 32 2 41.5546257537 41.174672961 84.0011757533
576 32 2 42.5420105805 40.9369237911 84.2061063445
577 33 1 61.6482955179 69.3780105779 79.5090550112
578 33 1 65.1489544438 69.156364209 75.2412392897
579 33 2 61.2217636556 69.7260787489 79.4434752363
580 33 2 60.5933177286 70.5295021375 79.2617705677
581 33 2 60.2302474928 71.4645561298 79.0023403331
582 33 2 60.1614252272 72.4435501395 78.6702496286
583 33 2 60.3889032948 73.3747885652 78.2771863585
584 33 2 60.887727075 74.1709285995 77.840395913
585 33 2 61.6082095107 74.7569412922 77.3811092978
586 33 2 62.4804599511 75.0769502386 76.922607984
587 33 2 63.4207544971 75.0993245645 76.488101865
588 33 2 64.3391672114 74.8195619959 76.098613736
589 33 2 65.1477666271 74.2606992293 75.7710631228
590 33 2 65.768630466 73.4712121981 75.5167241122
591 33 2 66.1409480459 72.520597621 75.3401977493
592 33 2 66.226563012 71.4930385622 75.2389926639
593 33 2 66.0134511861 70.4797313692 75.2037521532
594 33 2 65.516816539 69.5705733705 75.2191070192