LAMMPS input file for bananas

4320 atoms

2 atom types

0 63.4960420787 xlo xhi
0 63.4960420787 ylo yhi
0 63.4960420787 zlo zhi

Masses

 1 1
 2 1

Atoms

1 1 1 8.18800395754 18.7974109559 22.2530887783
2 1 1 6.10814402151 17.5243057538 27.2100411537
3 1 2 8.29719769782 19.3355921242 22.1768041454
4 1 2 8.28115113918 20.369533503 22.1123235731
5 1 2 7.98689182513 21.3613396484 22.1687331236
6 1 2 7.44796836235 22.2257078825 22.3581508321
7 1 2 6.72022984077 22.8889511527 22.6805713957
8 1 2 5.87673533824 23.2957144094 23.1238666567
9 1 2 5.00109478091 23.4140200705 23.6648910518
10 1 2 4.1798481219 23.2381826927 24.2715912684
11 1 2 3.49457745586 22.7893271848 24.9059278182
12 1 2 3.01447102915 22.1134633282 25.5273422352
13 1 2 2.79001691604 21.2772921087 26.096453871
14 1 2 2.84840116573 20.3621260997 26.578649336
15 1 2 3.1910298666 19.4564780386 26.9472374175
16 1 2 3.79340098504 18.647993127 27.1858819118
17 1 2 4.60733766029 18.0154604055 27.290090626
18 1 2 5.56537939656 17.6216313427 27.2676248294
19 2 1 11.2368917141 14.7796524297 7.61160888905
20 2 1 8.01025317992 11.3536874184 10.5046278265
21 2 2 11.1782270721 15.3167126639 7.7361333952
22 2 2 10.8397572402 16.2746712359 7.93911999178
23 2 2 10.2299440863 17.0960102842 8.10337618279
24 2 2 9.40198023053 17.7052129741 8.23298307791
25 2 2 8.42894214636 18.0460981331 8.33517997753
26 2 2 7.39712943551 18.0869410145 8.41970452988
27 2 2 6.3981988498 17.8233649232 8.4979051704
28 2 2 5.52081002323 17.2787401397 8.58170674219
29 2 2 4.84254438329 16.5020537819 8.68252357845
30 2 2 4.42283381125 15.5634447598 8.81021911647
31 2 2 4.29754358498 14.5478108013 8.97220687175
32 2 2 4.47570335475 13.5470702518 9.17277471582
33 2 2 4.93868411473 12.6517839618 9.41269404824
34 2 2 5.64189618712 11.9429009083 9.68914948559
35 2 2 6.51885345206 11.4843799112 9.99599547612
36 2 2 7.48723337976 11.3173599584 10.3243164504
37 3 1 48.1131050089 28.9679214562 5.05510504471
38 3 1 47.2030080267 27.4181042264 10.2788758186
39 3 2 48.2131027031 29.5088509271 4.98598661965
40 3 2 48.2043761622 30.5448880883 4.98505961972
41 3 2 47.9518842985 31.5337675878 5.16342779363
42 3 2 47.4892641357 32.3893681374 5.52033155601
43 3 2 46.8693053299 33.037716469 6.03873827982
44 3 2 46.1591385344 33.4237298001 6.68689477472
45 3 2 45.4341166193 33.5162364825 7.42122150553
46 3 2 44.7709464595 33.3108172145 8.19028475038
47 3 2 44.2406973073 32.8302078484 8.93948464699
48 3 2 43.9023230209 32.1222270785 9.61603182418
49 3 2 43.7972885769 31.2554178949 10.173759012
50 3 2 43.9457906493 30.3128000731 10.5773290648
51 3 2 44.3449167358 29.3843031431 10.805455848
52 3 2 44.9689106256 28.5585695537 10.852844412
53 3 2 45.7715200083 27.9148751496 10.7306736128
54 3 2 46.6902122488 27.5159033905 10.4655771891
55 4 1 43.9981761304 50.4931690942 55.1417348564
56 4 1 40.4521525407 46.8532882322 57.3085239724
57 4 2 43.9103971766 51.0205607513 55.2884811796
58 4 2 43.5254521891 51.9597028593 55.4965183606
59 4 2 42.8808287332 52.7617289866 55.6176162649
60 4 2 42.030114109 53.3516526515 55.6591458791
61 4 2 41.0456802757 53.6738199451 55.635730627
62 4 2 40.012087341 53.6969822357 55.5679134833
63 4 2 39.0183761336 53.4171443988 55.4802845364
64 4 2 38.1499523688 52.8579289616 55.3992396676
65 4 2 37.4808021468 52.0684229728 55.3505746372
66 4 2 37.066748317 51.1187038492 55.3571338698
67 4 2 36.9403623741 50.093452007 55.4367282457
68 4 2 37.1079956541 49.0842324676 55.6005116875
69 4 2 37.5492004266 48.1811489508 55.8519645093
70 4 2 38.2185936507 47.4646311617 56.1865761954
71 4 2 39.0499935184 46.9981038379 56.5922565221
72 4 2 39.9624517487 46.8222057545 57.0504375489
73 5 1 24.7137748643 45.8250262423 15.8448150439
74 5 1 23.1823497835 42.1576200844 12.0077770774
75 5 2 24.4853384914 45.7496529553 16.3443320899
76 5 2 23.8578879134 45.6003010912 17.1551648742
77 5 2 23.020867929 45.4357669288 17.7431921408
78 5 2 22.0504776619 45.2518850232 18.0562100085
79 5 2 21.0350725806 45.0462534248 18.0670809676
80 5 2 20.0671111335 44.8184526103 17.7762073917
81 5 2 19.2347274088 44.5700837213 17.2114948623
82 5 2 18.6136979473 44.3046226242 16.4258086494
83 5 2 18.260534914 44.0271030947 15.4921551838
84 5 2 18.2073351646 43.7436580023 14.4970277159
85 5 2 18.4588547034 43.4609603157 13.532522687
86 5 2 18.9920751859 43.1856148795 12.687945385
87 5 2 19.7583019796 42.9235564005 12.0416700061
88 5 2 20.6876025495 42.6795085147 11.6539960562
89 5 2 21.6951806216 42.4565532407 11.5616522119
90 5 2 22.689105137 42.2558500621 11.7744486004
91 6 1 45.0886743071 54.3046983062 6.02076509508
92 6 1 42.6011516154 50.672834161 9.35839670312
93 6 2 45.0646436478 54.832077696 6.19010231685
94 6 2 44.7899496492 55.7721381054 6.52815504207
95 6 2 44.2413683163 56.5762098001 6.88308777102
96 6 2 43.471018715 57.1690978916 7.24155006159
97 6 2 42.551233496 57.4948563124 7.58986976158
98 6 2 41.5679659673 57.5218871503 7.91529918878
99 6 2 40.6129556799 57.245820714 8.20717704819
100 6 2 39.7753666124 56.6899138188 8.45790018053
101 6 2 39.1336601135 55.9029299895 8.66361656989
102 6 2 38.7484433589 54.9546947962 8.82457644471
103 6 2 38.6569451699 53.9297314396 8.94510947008
104 6 2 38.8696227055 52.9195566875 9.03323011038
105 6 2 39.3692083205 52.0143393659 9.09990713227
106 6 2 40.1122834649 51.2946817116 9.15806383088
107 6 2 41.033236169 50.8242726936 9.22140010607
108 6 2 42.050241399 50.644082934 9.30314375312
109 7 1 18.1644853665 25.4879272589 55.6754297916
110 7 1 19.7616233057 21.5907257153 52.1006624434
111 7 2 17.6159821351 25.5323845914 55.7428785773
112 7 2 16.5896602156 25.6230351276 55.6338106668
113 7 2 15.6393815054 25.7007040281 55.2283628575
114 7 2 14.8462548491 25.7399148876 54.5628836116
115 7 2 14.2770651016 25.7186966485 53.6974225617
116 7 2 13.978185867 25.620586204 52.7102571475
117 7 2 13.9713526689 25.4361289662 51.6907578361
118 7 2 14.2516818148 25.1637406269 50.7312422428
119 7 2 14.7881155325 24.8098515624 49.9185606276
120 7 2 15.5262528024 24.3883207226 49.3261797256
121 7 2 16.3933078652 23.9191724242 49.0074864508
122 7 2 17.3047444494 23.4267711881 48.9909218215
123 7 2 18.1719810263 22.9376009784 49.2773886374
124 7 2 18.91046478 22.4778512595 49.8401691921
125 7 2 19.4473783702 22.071029897 50.6273605201
126 7 2 19.728277038 21.7358204782 51.566605214
127 8 1 52.1063101561 59.419052185 16.0535384263
128 8 1 51.481477923 54.8596356974 19.1095647734
129 8 2 51.9916789127 59.8937378967 16.3160545995
130 8 2 51.5784850596 60.6695141293 16.8645909136
131 8 2 50.9465555157 61.2359035484 17.4589965737
132 8 2 50.1604869325 61.5378164781 18.062647778
133 8 2 49.2989253226 61.5442695678 18.6380780181
134 8 2 48.4473976865 61.2512098414 19.1503930509
135 8 2 47.6905164545 60.6818841158 19.5704514159
136 8 2 47.1042672905 59.8847201149 19.8775206012
137 8 2 46.7490832011 58.9289124128 20.0611667566
138 8 2 46.6643362292 57.8981155327 20.1222057113
139 8 2 46.8647487971 56.8828190612 20.0726286132
140 8 2 47.3390517973 55.9720997638 19.9345089674
141 8 2 48.0510117414 55.2455024762 19.7379906961
142 8 2 48.9427333457 54.7657898052 19.5185405997
143 8 2 49.9399365318 54.5732214845 19.3137156533
144 8 2 50.9587268569 54.6818848076 19.1597397888
145 9 1 59.634961865 54.9789595473 36.68313847
146 9 1 58.0600193094 60.1510914947 35.5488553807
147 9 2 59.2928798491 54.5844397032 36.4968173088
148 9 2 58.4890539929 53.9769078218 36.2555311364
149 9 2 57.5319845048 53.5923062471 36.1578089032
150 9 2 56.5035068229 53.4729064962 36.1955894355
151 9 2 55.4919650514 53.6368076488 36.3484608449
152 9 2 54.5841596313 54.0762866645 36.5855210171
153 9 2 53.8574357126 54.758502317 36.8681942569
154 9 2 53.3726333503 55.6284885846 37.1537473602
155 9 2 53.1685420962 56.6141646559 37.3991846309
156 9 2 53.258365435 57.6329049028 37.5651668238
157 9 2 53.6285173216 58.5990699862 37.6195968116
158 9 2 54.2398605131 59.4318126527 37.5405451526
159 9 2 55.0312738238 60.0624467454 37.3182489001
160 9 2 55.925223158 60.4407077639 36.9560014695
161 9 2 56.8348285355 60.5393343387 36.469852452
162 9 2 57.6717829694 60.3565530329 35.8871447372
163 10 1 58.3090518699 40.6619554374 1.96618616146
164 10 1 53.2922622362 41.495934125 4.12356706922
165 10 2 58.5725993355 40.2121218631 2.15479707539
166 10 2 59.0091703438 39.4599683114 2.71793187321
167 10 2 59.3260740413 38.8721809746 3.51009858822
168 10 2 59.4800116785 38.4897226579 4.46061363335
169 10 2 59.4425384266 38.3348409751 5.48436039447
170 10 2 59.2026560479 38.4090405381 6.48954738227
171 10 2 58.7678153557 38.6929458156 7.38607478116
172 10 2 58.1632370922 39.1480671607 8.09374680666
173 10 2 57.4296131259 39.7203090399 8.54958133683
174 10 2 56.6193974959 40.3449006957 8.71355056431
175 10 2 55.7920253669 40.9522998287 8.57222942398
176 10 2 55.0084956726 41.4745311916 8.14001925179
177 10 2 54.325811226 41.8513823522 7.45783514148
178 10 2 53.7917830653 42.0358918947 6.58937664311
179 10 2 53.4406726054 41.9986298281 5.61532171934
180 10 2 53.2900688018 41.7303800506 4.62597316479
181 11 1 40.0512324393 23.7538232923 25.9239128657
182 11 1 38.7774826345 20.0122242507 22.0643806261
183 11 2 39.6199271107 24.0386825389 26.12444344
184 11 2 38.7655671647 24.6060014671 26.2716450957
185 11 2 37.9056566565 25.1616921599 26.1128629081
186 11 2 37.1049700915 25.6415589225 25.6633310117
187 11 2 36.4228838706 25.9883172089 24.9647846
188 11 2 35.9079642907 26.1568149546 24.0816558738
189 11 2 35.5935408559 26.1181480673 23.0952012186
190 11 2 35.4946683826 25.8622949571 22.0960949024
191 11 2 35.6067547933 25.3990299778 21.1761643578
192 11 2 35.9059796719 24.7570325209 20.420020358
193 11 2 36.3514654313 23.9812729654 19.8973449699
194 11 2 36.8890031959 23.1289137479 19.6565402208
195 11 2 37.455993796 22.2640991598 19.7203163825
196 11 2 37.9871535144 21.4521087659 20.0836219908
197 11 2 38.4204645233 20.7534073473 20.7141042731
198 11 2 38.7028276431 20.2181336973 21.555058017
199 12 1 31.6222173893 8.97714827777 60.9494148049
200 12 1 34.1822940685 12.4552961714 57.5046382245
201 12 2 31.4540516364 9.20295232621 61.4270280368
202 12 2 31.3611287169 9.70401893729 62.3291076306
203 12 2 31.5574584376 10.2819798746 63.1662849158
204 12 2 32.0192409214 10.9015085209 63.8564959018
205 12 2 32.6984809814 11.5234894732 64.3310721834
206 12 2 33.5273627536 12.1085838076 64.5409998822
207 12 2 34.424430932 12.6208147167 64.461387131
208 12 2 35.3020152021 13.0308466995 64.0937329006
209 12 2 36.0742211553 13.3186594142 63.4657903727
210 12 2 36.664759335 13.4753724783 62.6290373117
211 12 2 37.0138988167 13.5040548924 61.6539840042
212 12 2 37.083911522 13.4194453084 60.6237464342
213 12 2 36.862511032 13.2466086412 59.6264704841
214 12 2 36.3639724618 13.0186514683 58.7472976725
215 12 2 35.6278313218 12.7737044543 58.0606047328
216 12 2 34.7152799614 12.5514468421 57.6232243724
217 13 1 32.059863236 47.974560867 48.1985156135
218 13 1 27.6985450175 45.126874123 50.0390521297
219 13 2 32.041886849 48.5196524888 48.2981828668
220 13 2 31.7937503559 49.5214259326 48.3894421639
221 13 2 31.2809391991 50.4213599531 48.3650805665
222 13 2 30.5423444271 51.1379294122 48.2448475256
223 13 2 29.6374366611 51.6063223615 48.0572309183
224 13 2 28.6408455077 51.7843474782 47.8368604532
225 13 2 27.6355572688 51.6562796913 47.6213512659
226 13 2 26.7053509625 51.2342934797 47.4478753993
227 13 2 25.9271620896 50.5573532015 47.3497736715
228 13 2 25.364070168 49.6876615962 47.3535167495
229 13 2 25.0595492033 48.7049901717 47.4762924181
230 13 2 25.0335051497 47.6994082446 47.7244389599
231 13 2 25.2804615352 46.7630733622 48.0928674375
232 13 2 25.7700586272 45.9818313893 48.5655255363
233 13 2 26.4498206415 45.427391886 49.1168606904
234 13 2 27.2499387695 45.1507919738 49.7141491309
235 14 1 55.8659705724 25.7937816628 -0.81916218793
236 14 1 52.8068994251 27.6542058713 3.38784346242
237 14 2 55.7725215896 25.2658554296 -0.960381053393
238 14 2 55.6266317792 24.2406558858 -0.994027297646
239 14 2 55.5136350016 23.2465783228 -0.724784770785
240 14 2 55.4247894193 22.3729171816 -0.174991460448
241 14 2 55.3491518775 21.6979912682 0.607443191657
242 14 2 55.274575344 21.2820052036 1.55340510732
243 14 2 55.1888160786 21.1615619338 2.57887513532
244 14 2 55.0806496171 21.3463264689 3.59258717251
245 14 2 54.9408938513 21.8181449433 4.50434682518
246 14 2 54.7632459537 22.5326992924 5.23325238696
247 14 2 54.5448568635 23.4235467248 5.71506881316
248 14 2 54.2865909705 24.4081758063 5.90808257338
249 14 2 53.9929473286 25.3955271556 5.7969037283
250 14 2 53.6716495788 26.2942932644 5.39386868158
251 14 2 53.3329419604 27.021240932 4.73791574955
252 14 2 52.9886555755 27.5087977494 3.89103603783
253 15 1 21.8272662645 32.3313367698 34.1704938568
254 15 1 24.0541762501 34.3179709407 29.5216071461
255 15 2 21.2729973656 32.3208464653 34.1780786575
256 15 2 20.2587459105 32.5254461877 34.1243855415
257 15 2 19.3503945278 32.9998610041 33.9718130712
258 15 2 18.6266850667 33.695809396 33.7161757054
259 15 2 18.1495297587 34.5448176517 33.3626819925
260 15 2 17.9583680833 35.4644610619 32.9254598257
261 15 2 18.0665719649 36.3658767118 32.4262687227
262 15 2 18.4602269573 37.1618630981 31.8925165041
263 15 2 19.0994005086 37.7748283135 31.354761144
264 15 2 19.9217817065 38.1438623407 30.8439254921
265 15 2 20.8483607513 38.2302888386 30.3884787385
266 15 2 21.7906304881 38.021190387 30.0118415234
267 15 2 22.6586535974 37.5305858749 29.7302512082
268 15 2 23.3692601413 36.7981527163 29.5512818833
269 15 2 23.8536282811 35.8856103601 29.4731540103
270 15 2 24.0635572039 34.8710947271 29.4848966219
271 16 1 16.3353497799 54.4701138847 16.1468876043
272 16 1 13.8278959293 49.5635202369 16.5418623166
273 16 2 16.3094014158 54.7831457079 16.6037457312
274 16 2 16.0310285771 55.3197543473 17.4451788789
275 16 2 15.4788242689 55.7395247448 18.2147977628
276 16 2 14.7051000269 55.9910377294 18.8563131773
277 16 2 13.7823583366 56.0382103437 19.3251122052
278 16 2 12.7966842258 55.8635847089 19.5923245668
279 16 2 11.8398988442 55.4699192635 19.6474540678
280 16 2 11.001190211 54.8799373397 19.4993353001
281 16 2 10.3589839653 54.1342559918 19.1753283918
282 16 2 9.97379507907 53.2876838604 18.7188252053
283 16 2 9.88271207855 52.4042255114 18.1852942841
284 16 2 10.0960165248 51.5512475909 17.6372250444
285 16 2 10.5962458766 50.7933385354 17.1384320308
286 16 2 11.3397851544 50.1864215085 16.7482383918
287 16 2 12.2608423294 49.7726571537 16.5160687333
288 16 2 13.2774450907 49.5766007651 16.4769441975
289 17 1 26.8129551756 20.8434339912 16.8267672386
290 17 1 31.9756435592 19.4634102261 15.4267050533
291 17 2 26.5642321496 20.492815003 17.176888317
292 17 2 26.1708033821 19.675057822 17.676825322
293 17 2 25.9136469577 18.7083107204 17.9464929435
294 17 2 25.8306921745 17.675902513 17.9729846115
295 17 2 25.943990317 16.6671468491 17.7655585944
296 17 2 26.2577047396 15.7692015116 17.3547941325
297 17 2 26.7577313887 15.0591242186 16.7898042217
298 17 2 27.4129843492 14.5968490179 16.1337590954
299 17 2 28.1782292427 14.419723459 15.4581284266
300 17 2 28.9982062198 14.5391044636 14.8361670581
301 17 2 29.8126667482 14.9393231727 14.3362380193
302 17 2 30.561865105 15.579113121 14.0155814192
303 17 2 31.1920040401 16.3953715654 13.9150971629
304 17 2 31.6601382511 17.3089111306 14.0556170348
305 17 2 31.9380887334 18.2316775275 14.4360059375
306 17 2 32.0150112209 19.0747754658 15.0332653523
307 18 1 22.16142066 14.402748487 54.6010806609
308 18 1 18.9866023342 11.1916408263 57.7834237051
309 18 2 22.0712369808 14.9471286105 54.6549209172
310 18 2 21.6778534293 15.9031561947 54.723555099
311 18 2 21.0220485547 16.7043771125 54.7611718304
312 18 2 20.1604337277 17.2793409817 54.7832274432
313 18 2 19.1683793459 17.5772201454 54.8065966236
314 18 2 18.1331450238 17.5724424768 54.8480343296
315 18 2 17.1459261121 17.2670222105 54.9226486214
316 18 2 16.2935414851 16.6903763506 55.042523602
317 18 2 15.6505202324 15.8966433888 55.2156179839
318 18 2 15.2723085316 14.9597487259 55.4450396729
319 18 2 15.1902158776 13.9666665695 55.7287624917
320 18 2 15.4085613054 13.0094924667 56.0598108601
321 18 2 15.9042797221 12.1770490416 56.4268956004
322 18 2 16.6290242279 11.5467900504 56.8154429161
323 18 2 17.5135728073 11.1777406785 57.2089227541
324 18 2 18.4741377307 11.1051175528 57.5903554752
325 19 1 7.91773791618 12.7217218016 2.93345279863
326 19 1 2.86357148833 12.5211726086 5.15452749392
327 19 2 8.25440857772 13.1035696767 3.15305847707
328 19 2 8.70121319333 13.9608790476 3.52566589662
329 19 2 8.87196820485 14.934806281 3.83511456991
330 19 2 8.74645315833 15.9356402341 4.07181561018
331 19 2 8.33145182375 16.871217289 4.23281088297
332 19 2 7.66013387253 17.6553218193 4.32204263221
333 19 2 6.78903155062 18.2155445146 4.34999415517
334 19 2 5.79288691537 18.4998822952 4.33273427797
335 19 2 4.75783929679 18.4814782541 4.29045272501
336 19 2 3.77357392784 18.1610695922 4.24561987955
337 19 2 2.92514737516 17.5669204243 4.22093866838
338 19 2 2.28523486036 16.7522455808 4.23727525063
339 19 2 1.90750610777 15.7903602179 4.31175712323
340 19 2 1.8217334926 14.7679973373 4.45621199529
341 19 2 2.03107836843 13.7774023047 4.67608972404
342 19 2 2.51180291833 12.9079249315 4.96996557492
343 20 1 56.9871000814 44.1568439817 34.9720582322
344 20 1 52.7756089169 41.1717186077 36.9393812188
345 20 2 57.0304620266 44.6674358696 35.1837118496
346 20 2 56.883480853 45.6352747209 35.5230266057
347 20 2 56.4488623822 46.5406269693 35.7777698143
348 20 2 55.7614655434 47.2979923559 35.9430975747
349 20 2 54.8791893385 47.8353592287 36.0223159655
350 20 2 53.8776955026 48.1007682121 36.026579704
351 20 2 52.8435121396 48.0670481654 35.973875424
352 20 2 51.8661469159 47.7342927595 35.8873822417
353 20 2 51.0299286768 47.1298519389 35.7933590415
354 20 2 50.406321097 46.3058390476 35.7187510489
355 20 2 50.047408958 45.3343808369 35.6887338449
356 20 2 49.9811507591 44.301043305 35.7244186796
357 20 2 50.2088303754 43.2970325847 35.8409282375
358 20 2 50.7049400357 42.4108817485 36.046018246
359 20 2 51.4195052876 41.7203812552 36.3393705608
360 20 2 52.2826400357 41.285488558 36.7126221647
361 21 1 43.9683847521 44.5551221166 28.4233218022
362 21 1 41.5006480272 40.3724558579 25.7901546054
363 21 2 44.1883671096 44.9419955028 28.092688571
364 21 2 44.6985773466 45.4797937874 27.3688733112
365 21 2 45.2852448284 45.735349113 26.5540342152
366 21 2 45.881838831 45.6863651023 25.708382884
367 21 2 46.4209238545 45.3383033247 24.8949393717
368 21 2 46.8403061886 44.7238854885 24.1737880758
369 21 2 47.0887027033 43.900110945 23.5966012048
370 21 2 47.130415169 42.9430613497 23.2019289947
371 21 2 46.9485840549 41.9409660228 23.011685958
372 21 2 46.5467252298 40.9861600827 23.0291534344
373 21 2 45.9484095005 40.1666683466 23.2386805057
374 21 2 45.1951141952 39.5581821035 23.6071105346
375 21 2 44.3424426166 39.2171600557 24.0868033042
376 21 2 43.455055949 39.1756822592 24.6199772961
377 21 2 42.600779564 39.4385261118 25.1439763213
378 21 2 41.8444209198 39.9827309066 25.5969804647
379 22 1 39.7650761811 18.9987939739 44.463645935
380 22 1 35.6642331697 18.9168445618 40.7630565291
381 22 2 39.9594941149 18.5000354298 44.6079482902
382 22 2 40.0953430415 17.5189988159 44.9121887257
383 22 2 39.9250891544 16.5453167738 45.2226833408
384 22 2 39.4636826187 15.6583373979 45.4943846597
385 22 2 38.7526113851 14.9295060663 45.6857811116
386 22 2 37.856119674 14.4158533855 45.7626807001
387 22 2 36.8553522871 14.1547970032 45.7013275115
388 22 2 35.840958475 14.1607310896 45.4905670033
389 22 2 34.9048295007 14.4237143474 45.132862711
390 22 2 34.1317229962 14.910376134 44.6440717032
391 22 2 33.5915375313 15.5669581072 44.0519992522
392 22 2 33.3329415455 16.3242141535 43.3938644578
393 22 2 33.37893735 17.1037219871 42.7129078259
394 22 2 33.7247645282 17.8250311311 42.0544500119
395 22 2 34.3383338353 18.4129957634 41.461760964
396 22 2 35.1631520472 18.8046240582 40.9721159831
397 23 1 36.4946627539 18.3809988395 41.2826150594
398 23 1 31.5322616277 17.1937284195 39.165316055
399 23 2 36.610474088 18.9220820198 41.3172317447
400 23 2 36.7597409635 19.9346665542 41.1564773609
401 23 2 36.7956577964 20.8740023572 40.7208074843
402 23 2 36.6979238695 21.6617862125 40.0550036934
403 23 2 36.4584203752 22.2335284586 39.2248236578
404 23 2 36.081950423 22.5444310492 38.3110075026
405 23 2 35.585801249 22.5734707755 37.4019185617
406 23 2 34.9981685304 22.3253154753 36.5854892958
407 23 2 34.355586425 21.8298985725 35.9412064841
408 23 2 33.6995975805 21.1396907248 35.5328662165
409 23 2 33.0729666329 20.3249172642 35.4027590508
410 23 2 32.5157823242 19.4671573453 35.567815341
411 23 2 32.0618035213 18.6519082235 36.0180620811
412 23 2 31.7353821847 17.9607924085 36.7175319178
413 23 2 31.5492437529 17.4641179911 37.6075414787
414 23 2 31.5033272527 17.2144702482 38.6120402047
415 24 1 25.0797964448 7.68044889002 16.2168072231
416 24 1 19.9944764205 5.54993842946 16.5609532524
417 24 2 25.1304523854 8.1967918668 16.4122694804
418 24 2 25.0392110365 9.20349484642 16.6395889435
419 24 2 24.7046843074 10.1831217603 16.682866978
420 24 2 24.1458104538 11.0458934116 16.5535027456
421 24 2 23.4019763722 11.7126816484 16.2786312891
422 24 2 22.5294275897 12.1222216831 15.8986502459
423 24 2 21.596141634 12.2366962141 15.4635377111
424 24 2 20.6756320642 12.0451823721 15.0282968681
425 24 2 19.8402479057 11.5646473098 14.6479425953
426 24 2 19.1545792303 10.8384016919 14.3724870068
427 24 2 18.6695699437 9.93215204348 14.242380982
428 24 2 18.4178743844 8.92801177578 14.284827176
429 24 2 18.4108809685 7.91701676843 14.5113005706
430 24 2 18.6376741658 6.99082769227 14.9165025598
431 24 2 19.0660294208 6.23337538415 15.4788439041
432 24 2 19.6453503356 5.71321077551 16.1624125318
433 25 1 17.0435889248 43.7320977828 22.4896960948
434 25 1 14.7820051854 47.5818441946 25.7427996308
435 25 2 17.37190482 43.9287526056 22.0885513059
436 25 2 17.8018033636 44.4362900151 21.2941691364
437 25 2 17.9667094828 45.0967751291 20.5131343118
438 25 2 17.8604249273 45.8645275584 19.8255953589
439 25 2 17.5014697522 46.6840897847 19.3031789056
440 25 2 16.9313942641 47.4952819652 19.0024611054
441 25 2 16.2109918219 48.2386871643 18.9598108719
442 25 2 15.4147576847 48.8610670487 19.18807495
443 25 2 14.6240989677 49.320214419 19.6754069689
444 25 2 13.9199146015 49.5888002832 20.3863472078
445 25 2 13.375221611 49.6568648213 21.2650546539
446 25 2 13.0484998081 49.532725196 22.2403967622
447 25 2 12.9783615139 49.2422174661 23.2324329963
448 25 2 13.1800321482 48.8263416983 24.1597011949
449 25 2 13.6439624735 48.3375249209 24.9466426301
450 25 2 14.3366989826 47.8348425402 25.5304889834
451 26 1 44.2991252323 6.17367349763 31.7422686232
452 26 1 48.7256681094 6.67390559894 35.0092974053
453 26 2 43.8844619145 5.87343762893 31.9550933024
454 26 2 43.2799035377 5.15535895015 32.3936388431
455 26 2 42.9449730247 4.29591087045 32.8654656767
456 26 2 42.9106691781 3.37867745452 33.3460446172
457 26 2 43.1805894831 2.49250974601 33.810048747
458 26 2 43.7306022068 1.72342723234 34.2336618985
459 26 2 44.5110459409 1.1467773984 34.5967494337
460 26 2 45.4512561062 0.820368004614 34.8846934627
461 26 2 46.4660058405 0.779198064149 35.0897252255
462 26 2 47.4632741993 1.03226777636 35.2116331935
463 26 2 48.3526336182 1.56175818271 35.2577823497
464 26 2 49.0534921449 2.32465531719 35.2424428905
465 26 2 49.5024391791 3.25667081436 35.1854895352
466 26 2 49.65902518 4.27810162204 35.1105899983
467 26 2 49.5094485336 5.30109472148 35.0430477411
468 26 2 49.0678135326 6.23765469521 35.0074956284
469 27 1 15.378736812 39.2511196621 53.7742933705
470 27 1 14.1659774451 36.6044639746 58.4692288814
471 27 2 15.498256008 39.7892381897 53.8336667661
472 27 2 15.5207723425 40.7984330508 54.0670521944
473 27 2 15.2896716217 41.7312617808 54.4541865748
474 27 2 14.8359800815 42.5026910535 54.9762123162
475 27 2 14.2110125157 43.0423986721 55.6019768401
476 27 2 13.4816950701 43.3011832489 56.2908720553
477 27 2 12.7244651034 43.2554487808 56.9965356771
478 27 2 12.0183041256 42.9093553618 57.671077025
479 27 2 11.4375388453 42.2944400014 58.2694421308
480 27 2 11.045066488 41.4667421105 58.753520287
481 27 2 10.8866218828 40.5016956591 59.0956177364
482 27 2 10.9866088546 39.4872535712 59.2809818834
483 27 2 11.3458758808 38.5158710512 59.3091459541
484 27 2 11.9416387549 37.6760785389 59.1939715416
485 27 2 12.7295573059 37.0444123966 58.9623851583
486 27 2 13.6477768864 36.6784388243 58.6519239569
487 28 1 61.852304313 12.9587800331 59.9026674927
488 28 1 59.1382035554 11.8852469726 64.5929952965
489 28 2 61.7966246534 13.4771164957 59.7139648824
490 28 2 61.463120356 14.4034705996 59.3913304626
491 28 2 60.8592815445 15.2092273308 59.1472305012
492 28 2 60.0403664086 15.8310795004 59.0202348691
493 28 2 59.0812367702 16.222482329 59.0382396904
494 28 2 58.0695346281 16.3578958788 59.2159246856
495 28 2 57.0976938246 16.2351129503 59.553415154
496 28 2 56.2545149473 15.875460263 60.0362705532
497 28 2 55.6170713931 15.3218545818 60.6368007158
498 28 2 55.2436843343 14.6348909687 61.3165897344
499 28 2 55.1686068991 13.8873197047 62.0299974685
500 28 2 55.3989020911 13.1574152962 62.7283195218
501 28 2 55.913799015 12.5218419628 63.3642265172
502 28 2 56.6665860883 12.048665899 63.8960780436
503 28 2 57.5888686772 11.7911512219 64.2917180675
504 28 2 58.5968030847 11.78290509 64.53140587
505 29 1 57.9186025238 29.5121058443 22.5341808317
506 29 1 56.1809953614 24.4005695223 23.7050389953
507 29 2 57.7087884951 29.910092473 22.8581658696
508 29 2 57.1113747905 30.552865447 23.4089741672
509 29 2 56.2956034924 31.0059007467 23.8592254498
510 29 2 55.3354935818 31.2192133647 24.1850117261
511 29 2 54.3182201188 31.1646683752 24.3737696575
512 29 2 53.3361684682 30.8385453572 24.4254256728
513 29 2 52.478513621 30.2618775014 24.3524026741
514 29 2 51.8230921318 29.4785344909 24.1784877221
515 29 2 51.4293075255 28.5512238963 23.9366639097
516 29 2 51.332715824 27.5557755493 23.6661040408
517 29 2 51.5417847105 26.574229855 23.4086001339
518 29 2 52.0371217225 25.6873600295 23.2047541918
519 29 2 52.7732418231 24.9673098359 23.0902774369
520 29 2 53.6827132403 24.4710178741 23.0927353291
521 29 2 54.6823036929 24.2350277792 23.229035048
522 29 2 55.6805667905 24.2721573667 23.5038844481
523 30 1 33.047257219 45.2487507254 11.7002868083
524 30 1 38.3812223043 44.2555896913 10.6608452797
525 30 2 32.6949844994 45.0563849591 11.3178199064
526 30 2 32.179987842 44.8085480178 10.4536409293
527 30 2 31.8988910744 44.711146275 9.46119570715
528 30 2 31.8854737571 44.7563235462 8.42619377433
529 30 2 32.1491171841 44.9232279511 7.43822359551
530 30 2 32.673949303 45.1799125063 6.58258681673
531 30 2 33.4202914104 45.4862470079 5.93252324827
532 30 2 34.3282747594 45.7975757918 5.54253525179
533 30 2 35.323297436 46.0687879786 5.44341999564
534 30 2 36.322824124 46.2584292095 5.63946237535
535 30 2 37.2439089788 46.3324801003 6.10804445682
536 30 2 38.010755919 46.2674570172 6.80170704058
537 30 2 38.5616272372 46.0525525477 7.65247544094
538 30 2 38.8544708262 45.6906205669 8.57805519696
539 30 2 38.8707531173 45.1979161145 9.48933299256
540 30 2 38.6171483643 44.6026137916 10.2984990971
541 31 1 26.2700942092 17.6527882039 0.624941206862
542 31 1 27.1503610057 12.8059814162 3.12525826495
543 31 2 26.1402149332 18.070903983 0.965076704866
544 31 2 25.739123443 18.6996966627 1.68423968612
545 31 2 25.1745874661 19.077332287 2.46663375384
546 31 2 24.5094047128 19.1658083247 3.25603473345
547 31 2 23.8155465779 18.9534783679 3.99557978906
548 31 2 23.1675981407 18.4561136713 4.63295031901
549 31 2 22.6359599343 17.715465644 5.12514065655
550 31 2 22.2804311249 16.7954603209 5.44237792146
551 31 2 22.1447589781 15.7763716746 5.57083573846
552 31 2 22.2526514124 14.747504858 5.5138944744
553 31 2 22.6056160853 13.7990562781 5.29183312683
554 31 2 23.1828229753 13.0138924345 4.93998094759
555 31 2 23.9430029818 12.4599968595 4.50549727591
556 31 2 24.8282094937 12.1842736009 4.04307309074
557 31 2 25.7691000683 12.2082720433 3.60994607412
558 31 2 26.6912568093 12.5262227393 3.26068354948
559 32 1 55.2142962974 56.7407986411 34.0883007882
560 32 1 56.8610805092 57.1760388721 28.8331453421
561 32 2 54.6668514657 56.6874711761 34.1578847353
562 32 2 53.6346016953 56.7757021656 34.1466724564
563 32 2 52.6692838886 57.0907544177 33.9408725006
564 32 2 51.8541555005 57.5926099917 33.5444425511
565 32 2 51.2587846215 58.2242243235 32.9787157058
566 32 2 50.9327090326 58.9167256849 32.280456022
567 32 2 50.9009209691 59.5956926578 31.4985075711
568 32 2 51.1615891446 60.1879374473 30.6893424317
569 32 2 51.6862256684 60.6281767538 29.9119134111
570 32 2 52.4222826403 60.8649821713 29.2222806541
571 32 2 53.2979417513 60.8654677489 28.6685019106
572 32 2 54.2286603306 60.6182874575 28.2862522004
573 32 2 55.1248771839 60.1346693501 28.0955721305
574 32 2 55.9001758573 59.4473921546 28.0990412468
575 32 2 56.4791612656 58.6077975805 28.2815429163
576 32 2 56.8043317529 57.6811106592 28.611642167
577 33 1 37.3938112744 28.9877169152 14.7767897391
578 33 1 34.0407171366 33.2195947281 13.608046422
579 33 2 37.5123157802 28.9252686213 15.3147846097
580 33 2 37.7859392055 29.0376125125 16.3077393329
581 33 2 38.0910086708 29.441344127 17.2118319255
582 33 2 38.382900542 30.1039872767 17.9528806438
583 33 2 38.6181922875 30.969466679 18.4715647576
584 33 2 38.758620326 31.9632190691 18.7288314758
585 33 2 38.7745676494 32.9989894422 18.7094555046
586 33 2 38.6477633341 33.9866929667 18.4234267916
587 33 2 38.3729478868 34.8406259755 17.9050399694
588 33 2 37.9583526334 35.4872776269 17.2097684908
589 33 2 37.4249494555 35.8720302205 16.4092083728
590 33 2 36.8045392593 35.9641374554 15.58455241
591 33 2 36.1368534084 35.7595268727 14.8191896692
592 33 2 35.4659323158 35.2811710496 14.1911047981
593 33 2 34.8361112782 34.5769937103 13.765769934