LAMMPS input file for bananas

648 atoms

2 atom types

0 33.7373066121 xlo xhi
0 33.7373066121 ylo yhi
0 33.7373066121 zlo zhi

Masses

 1 1
 2 1

Atoms

1 1 1 21.3219116924 2.7776418692 13.5543616725
2 1 1 26.7312160893 2.75206001499 14.591379723
3 1 2 21.0620081747 3.25320380318 13.6712879743
4 1 2 20.6862573839 4.11957547391 14.0966228335
5 1 2 20.4937963267 4.89873955239 14.7512680438
6 1 2 20.51511001 5.53256763339 15.570112328
7 1 2 20.7611993388 5.97617769141 16.473078789
8 1 2 21.2225784592 6.20202476961 17.3724233702
9 1 2 21.8701393285 6.20241151374 18.1807321243
10 1 2 22.6578047145 5.99018973321 18.8188883957
11 1 2 23.5267278185 5.59758904682 19.2232837609
12 1 2 24.4106557583 5.07327937389 19.3516155002
13 1 2 25.2419680634 4.47793500491 19.186742201
14 1 2 25.9578398179 3.87870455586 18.7382460793
15 1 2 26.5059677205 3.34309083227 18.0415596272
16 1 2 26.8493371721 2.93279841134 17.1547361836
17 1 2 26.9695959025 2.69810969271 16.1531587706
18 1 2 26.8687266538 2.67330200253 15.1226694479
19 2 1 22.6170455994 28.0557650571 4.65864480163
20 2 1 19.5537244807 24.1641295969 7.06859751821
21 2 2 22.5493202776 28.5675297333 4.86085990634
22 2 2 22.1943523385 29.4765094047 5.20792184645
23 2 2 21.5703696774 30.2486618339 5.50309050303
24 2 2 20.7324036629 30.8101546797 5.73811606305
25 2 2 19.7549887792 31.1063557774 5.91023034433
26 2 2 18.7253693186 31.1068124864 6.02239909647
27 2 2 17.735547663 30.8080272396 6.08305169301
28 2 2 16.873898897 30.2337763223 6.10531285192
29 2 2 16.2171160252 29.4329428273 6.10580640746
30 2 2 15.8232199305 28.4750612956 6.10314016171
31 2 2 15.7262711684 27.4439801202 6.11620991096
32 2 2 15.9332655809 26.4302193397 6.16247722348
33 2 2 16.4234966737 25.5227203575 6.2563779372
34 2 2 17.1504428708 24.8007395425 6.40800643216
35 2 2 18.0460076375 24.3266245548 6.6221955969
36 2 2 19.0267260123 24.1401317836 6.89807634384
37 3 1 7.18996823448 4.42162303818 9.38608358004
38 3 1 3.64872029485 8.48952628466 8.26878275473
39 3 2 7.50465569783 4.25957392907 8.95936043995
40 3 2 7.88643974687 3.94530149032 8.04932085552
41 3 2 7.97372645758 3.65531012079 7.05887433661
42 3 2 7.76226840552 3.43264926398 6.06973030961
43 3 2 7.27504670313 3.3142316488 5.1634794877
44 3 2 6.56017642892 3.32746894739 4.41415743672
45 3 2 5.68652126796 3.48777338914 3.881496741
46 3 2 4.73741705908 3.79715304163 3.60548278775
47 3 2 3.80307630454 4.24402878908 3.60270937322
48 3 2 2.97236591896 4.80428968933 3.86486629193
49 3 2 2.32470761934 5.44349052093 4.35949675491
50 3 2 1.92283918005 6.1199912289 5.03295560347
51 3 2 1.80709631488 6.78875213026 5.81529869768
52 3 2 1.99173635322 7.40543897235 6.62665784511
53 3 2 2.46363878227 7.93046369598 7.38452023903
54 3 2 3.18350109183 8.33259261561 8.01124893501
55 4 1 33.5992665003 9.96891703328 30.8361320225
56 4 1 30.9849435939 6.95057963215 34.6297569382
57 4 2 33.3087765821 10.3954391355 30.6334617104
58 4 2 32.599499303 11.0291229075 30.2234996518
59 4 2 31.7236584843 11.4058811262 29.8189574709
60 4 2 30.7520099173 11.4975840545 29.4722761963
61 4 2 29.7640416123 11.3020827908 29.2306232318
62 4 2 28.8407290121 10.8434051261 29.1315933705
63 4 2 28.0571546353 10.1695655765 29.1997822878
64 4 2 27.4756648194 9.34818918834 29.4445448136
65 4 2 27.1401872796 8.46034797945 29.8591423042
66 4 2 27.0722273992 7.59317178033 30.4213568232
67 4 2 27.2689081605 6.83190694753 31.0955161542
68 4 2 27.703232366 6.2521467427 31.8357450786
69 4 2 28.3265432475 5.91294152506 32.5901465874
70 4 2 29.072959197 5.85141671604 33.3055319376
71 4 2 29.8653784235 6.07938907159 33.9322684417
72 4 2 30.6225062529 6.58228966597 34.4288031467
73 5 1 24.8453875603 22.3751690432 18.3199167323
74 5 1 20.7201512031 23.0286744454 21.9104585596
75 5 2 25.2925045913 22.6887884934 18.4153628048
76 5 2 25.9699411394 23.4486899076 18.6059614274
77 5 2 26.3893664542 24.3727117677 18.8132396909
78 5 2 26.5135293267 25.3762369717 19.0373356908
79 5 2 26.3320896955 26.3674022329 19.2768547008
80 5 2 25.8625610721 27.2554707889 19.5289962933
81 5 2 25.1487143042 27.9591024349 19.7898095787
82 5 2 24.2565881636 28.413767126 20.0545533022
83 5 2 23.2684703646 28.5776264482 20.3181279763
84 5 2 22.2753976028 28.4353469032 20.5755406645
85 5 2 21.368858185 27.9994974516 20.822360053
86 5 2 20.6324534967 27.309403938 21.0551203346
87 5 2 20.1342783095 26.4275648104 21.2716370935
88 5 2 19.9207144091 25.4339548146 21.4712063993
89 5 2 20.0122032138 24.418735845 21.6546689661
90 5 2 20.4013826795 23.4740393056 21.8243335265
91 6 1 28.608122734 21.8763376468 17.8882597113
92 6 1 28.1866923591 18.7361257922 13.3829183397
93 6 2 28.1806741784 22.2178067161 17.9780781876
94 6 2 27.4175487477 22.9157316576 17.9211692776
95 6 2 26.7490831776 23.6262463487 17.5732886565
96 6 2 26.2214485239 24.2737397292 16.9608735477
97 6 2 25.8679800698 24.7883446997 16.1344716797
98 6 2 25.7061390434 25.112306028 15.164134207
99 6 2 25.7359211468 25.2052443428 14.1330310273
100 6 2 25.9398569474 25.0478364367 13.1298704164
101 6 2 26.2846040972 24.643576444 12.240813876
102 6 2 26.7239862593 24.0184573739 11.5416231044
103 6 2 27.2032017639 23.2186020267 11.0907548368
104 6 2 27.6638184055 22.3060592161 10.9240329146
105 6 2 28.0490991372 21.3531484455 11.0513831879
106 6 2 28.3091732639 20.4358684811 11.4559288426
107 6 2 28.4055818141 19.6269705855 12.0955286058
108 6 2 28.3147828113 18.9893277388 12.9066176343
109 7 1 5.46703875229 24.465014454 18.6628056732
110 7 1 7.88361510209 28.183971258 21.9287135045
111 7 2 5.13233012568 24.675233925 18.2740143913
112 7 2 4.41488144669 25.1861053463 17.7290592968
113 7 2 3.64367067104 25.8222222501 17.4583426639
114 7 2 2.89855361636 26.5412304564 17.481278338
115 7 2 2.25700783654 27.2932208115 17.7905157701
116 7 2 1.78707107386 28.0252780647 18.3526099687
117 7 2 1.54114008523 28.6863037312 19.111069782
118 7 2 1.55119503709 29.2316733679 19.9915066782
119 7 2 1.82588473246 29.6273037864 20.9084147512
120 7 2 2.34973833187 29.8527595009 21.7729639969
121 7 2 3.08457541426 29.9031152835 22.5010965595
122 7 2 3.97298586064 29.7894050644 23.0211880283
123 7 2 4.94356239281 29.537616265 23.2805755122
124 7 2 5.91740885718 29.1863212228 23.2503575008
125 7 2 6.81533106827 28.7831615868 22.9280280391
126 7 2 7.56505481573 28.3805061084 22.3377051281
127 8 1 9.60892155249 27.3063525882 4.05603859138
128 8 1 9.72275249451 23.1975883696 7.72233563872
129 8 2 9.33664455463 27.7606557675 4.21991235161
130 8 2 8.65818977939 28.4556129697 4.5796787706
131 8 2 7.81831134273 28.8964517279 4.99556778467
132 8 2 6.89843227153 29.0439603005 5.44807412326
133 8 2 5.98726710204 28.8856619814 5.91435509774
134 8 2 5.17273615809 28.4369522659 6.37031255586
135 8 2 4.53395221639 27.7396956569 6.79278926311
136 8 2 4.13400991935 26.8584100028 7.16167952585
137 8 2 4.01423513096 25.8743861375 7.4617616875
138 8 2 4.1904183677 24.8782787787 7.68408547812
139 8 2 4.65137560115 23.9618439715 7.82678777016
140 8 2 5.35996760552 23.2095761542 7.89526238978
141 8 2 6.2564849435 22.6910070696 7.90166850658
142 8 2 7.26409007202 22.4543684233 7.86382240864
143 8 2 8.29582055755 22.5221958942 7.80357366999
144 8 2 9.26251510566 22.8892751623 7.74481371181
145 9 1 27.9855211651 14.2581886839 17.7547850926
146 9 1 25.053280703 13.5621023375 22.3649981676
147 9 2 28.2097982031 14.76133126 17.692110456
148 9 2 28.4105620928 15.7750346986 17.6228466838
149 9 2 28.3169559341 16.8064217342 17.6361485988
150 9 2 27.9427658338 17.7655994181 17.7486573126
151 9 2 27.3273512013 18.5692561889 17.9679719174
152 9 2 26.532057408 19.1482551502 18.2919568806
153 9 2 25.634624578 19.4539354247 18.7089366841
154 9 2 24.722102108 19.4625472594 19.1987599676
155 9 2 23.8829147119 19.177416653 19.7346361871
156 9 2 23.1988031147 18.6286422137 20.2855773894
157 9 2 22.7373739451 17.8703518775 20.819222551
158 9 2 22.5459378558 16.9757695178 21.3047870643
159 9 2 22.6471974808 16.0305410918 21.7158685429
160 9 2 23.0371782468 15.1249285982 22.0328532186
161 9 2 23.6855906281 14.3455833151 22.2447036014
162 9 2 24.5385908287 13.7676481301 22.3499644713
163 10 1 14.2788252007 9.23331871773 11.1596920869
164 10 1 8.80754294715 9.53576163989 10.6027058144
165 10 2 14.5242211991 9.70007292833 11.3308705391
166 10 2 14.8578978129 10.6696529355 11.4767225127
167 10 2 14.9925266706 11.6934184624 11.3962396725
168 10 2 14.9032041014 12.6846113646 11.1094359408
169 10 2 14.5854380719 13.5594422686 10.6551299747
170 10 2 14.0555576037 14.2447273998 10.0874071114
171 10 2 13.3492244951 14.6845587808 9.47068986085
172 10 2 12.5181829931 14.8453998609 8.87386623534
173 10 2 11.6255436595 14.7191421425 8.3640110797
174 10 2 10.7400312762 14.323844215 8.00027265898
175 10 2 9.9297210525 13.7020858385 7.82848169964
176 10 2 9.25583403637 12.9170870903 7.87697423304
177 10 2 8.76715723577 12.0469462882 8.15400896047
178 10 2 8.49559701735 11.1775218647 8.64701452913
179 10 2 8.45327105983 10.3946069593 9.32373532479
180 10 2 8.63140391074 9.77610996188 10.1351713498
181 11 1 29.0045113659 3.88162085171 28.2165755524
182 11 1 26.0946022935 1.16121894173 32.0203207548
183 11 2 29.0282572874 4.43106570938 28.2867697916
184 11 2 28.8390257212 5.43805505161 28.4379721398
185 11 2 28.3636062971 6.34021605623 28.6190250713
186 11 2 27.646798532 7.05671107373 28.8323787421
187 11 2 26.755402835 7.52362463635 29.0775393173
188 11 2 25.7721321085 7.6997889148 29.3511139807
189 11 2 24.7880730336 7.57053588363 29.6471201667
190 11 2 23.8943841442 7.14903421119 29.9575308303
191 11 2 23.1739873511 6.4750890258 30.2730060572
192 11 2 22.6940101791 5.6115139512 30.5837443327
193 11 2 22.4996675523 4.6384060754 30.8803758829
194 11 2 22.6101407647 3.64584565028 31.1548166651
195 11 2 23.0168292365 2.72568589423 31.4010051729
196 11 2 23.6841343975 1.96318120102 31.6154549012
197 11 2 24.5527042535 1.42921678637 31.7975721168
198 11 2 25.544842913 1.17384798648 31.9497099737
199 12 1 8.58751196571 5.93118766936 26.8222351954
200 12 1 7.72993893715 6.85413610368 32.1840790588
201 12 2 8.91146544314 6.30257962677 26.5682609643
202 12 2 9.3717954002 7.15186369601 26.1947490215
203 12 2 9.61854224442 8.13737617414 25.9933056761
204 12 2 9.64227793652 9.17281283021 25.9957179909
205 12 2 9.45390037471 10.1673191868 26.2151929829
206 12 2 9.08364012605 11.0337712824 26.6451538941
207 12 2 8.57830511749 11.6967164239 27.2598396184
208 12 2 7.99701441426 12.0992501814 28.0166526492
209 12 2 7.4058099224 12.2082028373 28.8600415503
210 12 2 6.87163712182 12.0171625788 29.7265640889
211 12 2 6.45624344476 11.5470598903 30.5506695593
212 12 2 6.21055042074 10.8442598834 31.270673281
213 12 2 6.17001252824 9.97633643483 31.8343787341
214 12 2 6.35138576205 9.02591329113 32.2038349143
215 12 2 6.75120043925 8.08313348026 32.3587953067
216 12 2 7.34607743702 7.23744339284 32.2985632168
217 13 1 9.00471285002 28.398455492 5.34890544664
218 13 1 5.51411962159 24.7619437838 7.56885509399
219 13 2 8.9287507923 28.924428351 5.50690250049
220 13 2 8.56297961145 29.8639600661 5.74394652707
221 13 2 7.93282440374 30.6705291668 5.90221519442
222 13 2 7.09130051634 31.2684973209 5.98570114975
223 13 2 6.11068810238 31.6012387422 6.00521297175
224 13 2 5.07594428058 31.636301243 5.97739004273
225 13 2 4.07695987637 31.3683640281 5.92318598305
226 13 2 3.20036648943 30.819722649 5.86595887225
227 13 2 2.52164061733 30.0382569173 5.82934232024
228 13 2 2.09822449028 29.0930669882 5.83509142583
229 13 2 1.96429060565 28.0681753546 5.90109994858
230 13 2 2.12762713914 27.0548687737 6.03976941533
231 13 2 2.56892810595 26.1433781044 6.25687880604
232 13 2 3.24355296893 25.4146543833 6.55105783941
233 13 2 4.08559531752 24.9329906929 6.91391186459
234 13 2 5.01388978513 24.7401622875 7.33078697608
235 14 1 12.8001587534 15.5678827211 12.0227578264
236 14 1 17.8721534486 15.9771364727 9.9146743115
237 14 2 12.5906285572 16.0395107461 12.2253531238
238 14 2 12.4049627587 16.9318067726 12.717322923
239 14 2 12.5061002693 17.7778154302 13.3061682561
240 14 2 12.8911584205 18.5131924254 13.9255624491
241 14 2 13.5313771238 19.083676782 14.5063945091
242 14 2 14.374740156 19.4500363576 14.9830681169
243 14 2 15.3507160809 19.591643584 15.2994802824
244 14 2 16.3766867066 19.5083555286 15.414134747
245 14 2 17.3654771666 19.2205269219 15.3039240834
246 14 2 18.233301312 18.7671549634 14.9662357789
247 14 2 18.9073982439 18.202324994 14.4191903483
248 14 2 19.3326639707 17.5902809881 13.699989773
249 14 2 19.4766737592 16.9995701559 12.8615267955
250 14 2 19.3326374266 16.4967953351 11.9675641086
251 14 2 18.9200182192 16.1405445988 11.0869228231
252 14 2 18.2827588709 15.9760513545 10.2872098955
253 15 1 11.5989309546 16.0562956841 7.19046471659
254 15 1 9.72638832879 13.4964275114 11.6934963598
255 15 2 11.2378815627 16.0891296594 6.77100551909
256 15 2 10.5389865714 15.9196315199 6.02567710636
257 15 2 9.85076784646 15.4674074441 5.3975476269
258 15 2 9.21960227943 14.7768923337 4.95311857691
259 15 2 8.6866667575 13.9142396849 4.74214841792
260 15 2 8.28418517278 12.9612921499 4.79311743416
261 15 2 8.03249143539 12.008122141 5.11063194993
262 15 2 7.93817617699 11.1448223472 5.67500449471
263 15 2 7.99348605988 10.453294404 6.4440481811
264 15 2 8.17703044059 9.99978411981 7.35692175043
265 15 2 8.45573098034 9.82884362577 8.33967483627
266 15 2 8.78783650887 9.95927075377 9.31198803339
267 15 2 9.12672835734 10.3823957432 10.1944934608
268 15 2 9.42516933038 11.0628714301 10.9160086001
269 15 2 9.63960905257 11.941894899 11.4200240937
270 15 2 9.73415328659 12.9425669652 11.6698541857
271 16 1 25.3104047986 27.4333701479 11.4015070718
272 16 1 25.9942834508 22.8499286841 14.3782518146
273 16 2 25.4492903717 27.9042881825 11.6590488236
274 16 2 25.572501447 28.6987744598 12.3119721401
275 16 2 25.522401754 29.3145466851 13.1432439719
276 16 2 25.3190645627 29.690122347 14.0867985172
277 16 2 24.9965296905 29.7859112039 15.0663361746
278 16 2 24.5997010062 29.5878236633 16.0022777286
279 16 2 24.1802537499 29.1085549517 16.81901745
280 16 2 23.7919246899 28.3864280312 17.4518140389
281 16 2 23.4856143841 27.4819007247 17.8526913511
282 16 2 23.304747943 26.4720553998 17.9948110943
283 16 2 23.2813171293 25.4435734394 17.8749189547
284 16 2 23.4329645275 24.4848348279 17.5136412051
285 16 2 23.7613755433 23.6778629215 16.9536047615
286 16 2 24.2521247908 23.0908485819 16.2555520326
287 16 2 24.8759908672 22.7719350468 15.4928046649
288 16 2 25.5916196833 22.7448300033 14.7445807778
289 17 1 3.17765964638 15.7248924541 24.5103080324
290 17 1 2.06347517868 20.3465264942 21.7289905931
291 17 2 3.37528477575 15.8003505246 25.0227835337
292 17 2 3.89394143053 16.0873563257 25.8720898481
293 17 2 4.55595786783 16.5531207865 26.5182291326
294 17 2 5.29073993889 17.170131727 26.9082176945
295 17 2 6.02106140633 17.8970918875 27.0124182235
296 17 2 6.6701025862 18.6826828909 26.8272410291
297 17 2 7.16845193551 19.4702425605 26.3754712161
298 17 2 7.46043243845 20.2029292894 25.7041919789
299 17 2 7.50917618469 20.8289027628 24.8804932908
300 17 2 7.29998462658 21.3060488477 23.985357113
301 17 2 6.84166825107 21.6058180072 23.1062764443
302 17 2 6.16574356417 21.7158273947 22.3292809338
303 17 2 5.32356057754 21.6409894663 21.7310958683
304 17 2 4.38162260695 21.4030642433 21.3721491885
305 17 2 3.41552495105 21.0386760357 21.2910638967
306 17 2 2.50306489816 20.5959753878 21.5011378344
307 18 1 7.43310943188 18.345173872 26.4695388345
308 18 1 8.43759537483 14.2771923798 30.0443352618
309 18 2 6.90457808356 18.5105757141 26.443508158
310 18 2 5.87439882259 18.5894403482 26.3713324638
311 18 2 4.86701919269 18.3630547747 26.2898823291
312 18 2 3.96903121324 17.8511061547 26.2248864036
313 18 2 3.25705660469 17.0993087633 26.2005736489
314 18 2 2.79076324406 16.1752374464 26.2374650344
315 18 2 2.60742684702 15.1621686375 26.3505031918
316 18 2 2.71853354203 14.1514902811 26.5476904967
317 18 2 3.10873298839 13.2343724482 26.8293597065
318 18 2 3.73723745466 12.4934578098 27.1881436325
319 18 2 4.54153934064 11.9953293237 27.6096466084
320 18 2 5.44310831662 11.7844416544 28.0737565561
321 18 2 6.35454882451 11.8790694355 28.5564780645
322 18 2 7.18756558378 12.2696416617 29.0321194063
323 18 2 7.86101110088 12.9196140207 29.4756341627
324 18 2 8.30828170696 13.7687996565 29.8649040329
325 19 1 24.4368886186 26.5334314093 8.72280663828
326 19 1 19.2271920057 25.8691249683 10.3824430685
327 19 2 24.728851938 26.9086028264 9.00808646505
328 19 2 25.0880504414 27.7469180066 9.49890452198
329 19 2 25.1718949297 28.693520501 9.91074440656
330 19 2 24.966485767 29.6591728648 10.2238272379
331 19 2 24.4842868045 30.5529013882 10.4273751634
332 19 2 23.7629893857 31.2902877265 10.5205936861
333 19 2 22.8620770396 31.801163053 10.5127440779
334 19 2 21.8574039638 32.0360034669 10.4222992775
335 19 2 20.8342814355 31.9704437573 10.2752602095
336 19 2 19.8797022726 31.6074981246 10.1027859778
337 19 2 19.0744120355 30.9772854574 9.9383539269
338 19 2 18.4855496224 30.1342842023 9.81470841198
339 19 2 18.1605280193 29.1523670264 9.76087637493
340 19 2 18.1227129311 28.1180678307 9.7995217378
341 19 2 18.3692931581 27.1226947783 9.94487974168
342 19 2 18.8715368175 26.2540081811 10.2014595021
343 20 1 12.9961170662 23.1562287033 10.0883329402
344 20 1 11.5789797338 24.978799895 15.0889919927
345 20 2 13.2640500848 22.6708934853 10.0818233099
346 20 2 13.8998729388 21.8672710906 10.2322181776
347 20 2 14.6522574051 21.2535399982 10.5927040055
348 20 2 15.4435247325 20.8760431946 11.1441479745
349 20 2 16.1924522636 20.7595925306 11.8500127399
350 20 2 16.8216763233 20.9052072911 12.6596865602
351 20 2 17.264743387 21.2900212944 13.5130962104
352 20 2 17.472166864 21.8693669878 14.3461822444
353 20 2 17.4159374611 22.5808465885 15.0967375741
354 20 2 17.0920760373 23.3500192143 15.7100772198
355 20 2 16.5209962755 24.0971856593 16.1440224701
356 20 2 15.745644115 24.7446524298 16.3727451832
357 20 2 14.827583524 25.2238129742 16.3891218443
358 20 2 13.8413853655 25.4814006993 16.2053828254
359 20 2 12.8678307746 25.4843438554 15.8519976708
360 20 2 11.9865485121 25.2227797992 15.3748980069
361 21 1 18.1368806435 27.5235451278 3.06465714216
362 21 1 17.6298721386 31.0413394068 7.27235255813
363 21 2 17.7115378526 27.5189245577 2.7090690206
364 21 2 16.7884049779 27.4876170777 2.24051399895
365 21 2 15.7690026033 27.445042769 2.06245642943
366 21 2 14.7416979886 27.4135748082 2.19033632305
367 21 2 13.7955786285 27.4145741048 2.61170958859
368 21 2 13.0123325383 27.4664424001 3.2873822262
369 21 2 12.4588029515 27.582945075 4.15498259177
370 21 2 12.1808960172 27.7719565299 5.13464614466
371 21 2 12.1993967695 28.034742487 6.13629455303
372 21 2 12.508074714 28.3658446285 7.06784571619
373 21 2 13.0742516948 28.7535780845 7.84360641676
374 21 2 13.8417802842 29.1810964294 8.39208266991
375 21 2 14.7361612359 29.6279271176 8.66249590989
376 21 2 15.6713335806 30.0718374158 8.62941110818
377 21 2 16.5575184929 30.4908607642 8.29505500197
378 21 2 17.3094020163 30.8652988779 7.68911314227
379 22 1 13.4177458538 11.5035338638 13.2035081589
380 22 1 8.43875036468 13.4659645719 14.5054699719
381 22 2 13.8291780215 11.8747277835 13.2213798418
382 22 2 14.451486737 12.6967475544 13.1228220925
383 22 2 14.8302828443 13.6280741761 12.8741405617
384 22 2 14.926243853 14.5941378039 12.5132931937
385 22 2 14.7258257522 15.5172025531 12.08846108
386 22 2 14.2424974554 16.3234515919 11.6536570828
387 22 2 13.5155132003 16.9497150397 11.2638029333
388 22 2 12.6063347951 17.3492274686 10.9697234921
389 22 2 11.5930297953 17.4958902513 10.8135144119
390 22 2 10.5631561819 17.3866502722 10.8247054073
391 22 2 9.60578205111 17.041778198 11.0175688234
392 22 2 8.80336766863 16.5030209453 11.3898188101
393 22 2 8.22424978141 15.8297967356 11.9228196611
394 22 2 7.91641319179 15.0937795312 12.5832843309
395 22 2 7.9031172718 14.3723664459 13.326308321
396 22 2 8.18077603083 13.7416235276 14.0994624167
397 23 1 20.2626325127 18.614987476 15.3054138734
398 23 1 17.6432762696 15.0185392732 18.5521303876
399 23 2 20.1911746368 19.1482850589 15.4390859038
400 23 2 19.829805967 20.0860875618 15.689360595
401 23 2 19.2023942289 20.8722532601 15.9363348383
402 23 2 18.3663189324 21.4343715256 16.1765418847
403 23 2 17.39797784 21.7204521176 16.407131769
404 23 2 16.3858238348 21.703663737 16.626131064
405 23 2 15.4223030466 21.3847795147 16.8326227455
406 23 2 14.5954290208 20.7921065466 17.0268297726
407 23 2 13.9807608872 19.9789058956 17.2100947662
408 23 2 13.6345166635 19.018538211 17.3847576387
409 23 2 13.5884493685 17.9977774081 17.5539423268
410 23 2 13.8469529517 17.008901821 17.7212720661
411 23 2 14.3866618155 16.1412836648 17.8905391582
412 23 2 15.1585804288 15.4732433713 18.0653593281
413 23 2 16.0925489339 15.0649112184 18.2488421759
414 23 2 17.1036377366 14.9527468676 18.4433077582
415 24 1 7.89268507283 20.1484286037 27.213962685
416 24 1 6.54956328987 15.3023896322 29.4608639044
417 24 2 7.85835560195 20.5838663207 27.5554245917
418 24 2 7.58024053935 21.3107676457 28.2387727803
419 24 2 7.05265174816 21.8609527195 28.9399465982
420 24 2 6.33009834097 22.17685657 29.6113776089
421 24 2 5.48485911845 22.2222673519 30.2082082287
422 24 2 4.60039485217 21.9856268089 30.692380188
423 24 2 3.76374140753 21.4810837291 31.0361032819
424 24 2 3.05757702132 20.74720438 31.2243882565
425 24 2 2.55268674729 19.8434574577 31.2564129769
426 24 2 2.30151088384 18.844793923 31.1455973588
427 24 2 2.33336540033 17.8348157352 30.9183802357
428 24 2 2.65176998748 16.8981561066 30.6118096401
429 24 2 3.23412726168 16.1127657655 30.2701661295
430 24 2 4.03378236158 15.5428082818 29.940926917
431 24 2 4.98427521885 15.2328119974 29.6704386491
432 24 2 6.00539793772 15.2036115734 29.4996932265
433 25 1 29.7131031108 5.68944283097 11.7746535002
434 25 1 24.6956607864 7.94864672549 11.5340184831
435 25 2 30.1304194632 6.02761454166 11.6372937253
436 25 2 30.7772647679 6.70243362875 11.1913019961
437 25 2 31.1954005309 7.39278878481 10.5422484442
438 25 2 31.3410009872 8.05223109641 9.75698758566
439 25 2 31.1950800965 8.63712914394 8.91478829884
440 25 2 30.7652219905 9.11064570638 8.10010900927
441 25 2 30.0848897313 9.44609522144 7.3948998835
442 25 2 29.210375383 9.62937599158 6.87113363316
443 25 2 28.2156693756 9.66025545708 6.58424569579
444 25 2 27.185716785 9.55239139227 6.56808167476
445 25 2 26.2086751711 9.33208709303 6.83181254457
446 25 2 25.3678796216 9.03589401167 7.35909877943
447 25 2 24.734247329 8.70728034273 8.10957958897
448 25 2 24.3598139756 8.39266919502 9.02255152759
449 25 2 24.2729910375 8.13720744352 10.0225011973
450 25 2 24.4759762731 7.98065090131 11.0259877764
451 26 1 7.98979061162 24.7662409167 10.8463118316
452 26 1 5.21350308193 21.4000686714 14.2075239484
453 26 2 7.94188363311 25.3063674619 10.9618496534
454 26 2 7.62215434098 26.267077347 11.1798128782
455 26 2 7.02995472994 27.0879956897 11.3991094043
456 26 2 6.2194162236 27.6941781688 11.6188101164
457 26 2 5.2645703389 28.0302521647 11.8379490606
458 26 2 4.25260122097 28.0654635942 12.0556114843
459 26 2 3.27589940597 27.7964799344 12.2710172094
460 26 2 2.42364105721 27.2476939591 12.4835917407
461 26 2 1.77366016925 26.4690005048 12.6930186267
462 26 2 1.38535453293 25.5312488984 12.8992683023
463 26 2 1.29427203398 24.519785527 13.1026007833
464 26 2 1.50887070694 23.5266750996 13.3035419677
465 26 2 2.00974784333 22.6423095801 13.502835704
466 26 2 2.75140841548 21.9471695798 13.701375994
467 26 2 3.66641163637 21.5044891012 13.9001255114
468 26 2 4.67151772503 21.3544921921 14.1000278598
469 27 1 21.2256913543 3.99440559556 20.7010240769
470 27 1 20.0599554104 9.09660332473 22.4172038369
471 27 2 21.6100120988 3.72789783314 20.9987688158
472 27 2 22.4514580994 3.42765170115 21.5227145757
473 27 2 23.3817405778 3.41225591429 21.9777263902
474 27 2 24.3117897042 3.68873266988 22.3400349565
475 27 2 25.1525569174 4.23750198407 22.5943202372
476 27 2 25.8231310906 5.0141662732 22.7351077768
477 27 2 26.2581130256 5.95355688909 22.7672676607
478 27 2 26.4135761414 6.97567379455 22.7055706406
479 27 2 26.271070081 7.99297701828 22.5733418811
480 27 2 25.839302335 8.91836532306 22.4003350316
481 27 2 25.1533446133 9.67311488637 22.2200203847
482 27 2 24.2714362996 10.194054437 22.0665342886
483 27 2 23.2696763301 10.4393228835 21.9715678531
484 27 2 22.2350872982 10.3921846654 21.9614785222
485 27 2 21.2576839411 10.062555085 22.0548877735
486 27 2 20.4222689137 9.48609659543 22.2609838988
487 28 1 5.19986829275 30.2544912727 9.9993012766
488 28 1 5.79668691221 31.2242793823 4.61042815833
489 28 2 5.67266397381 30.2291682374 10.2877518607
490 28 2 6.62020652777 30.0323758422 10.6567154534
491 28 2 7.58368032181 29.6693199369 10.7689960344
492 28 2 8.48555397547 29.1868431508 10.6060901265
493 28 2 9.25391053875 28.6426725081 10.1745756142
494 28 2 9.82900222902 28.1001580046 9.50551221475
495 28 2 10.1686960318 27.6224986909 8.65161059781
496 28 2 10.2523138361 27.2669825112 7.68242816924
497 28 2 10.0825171026 27.0797649007 6.67802939051
498 28 2 9.68506428957 27.091662034 5.72168845198
499 28 2 9.10646314611 27.3153421417 4.89229940135
500 28 2 8.40973184969 27.7441708884 4.25718549216
501 28 2 7.66865533132 28.3528160469 3.86596313074
502 28 2 6.96106028493 29.0995563567 3.74601968102
503 28 2 6.36172179783 29.9300841312 3.90001729403
504 28 2 5.9355481142 30.7824550307 4.3056502711
505 29 1 24.4507917415 14.498014118 7.76498601195
506 29 1 21.1277726564 17.7698560738 10.6957247078
507 29 2 24.8815420924 14.2888458415 8.04442029567
508 29 2 25.7194363591 14.1221683454 8.62995430948
509 29 2 26.5264870219 14.2561059901 9.26511429411
510 29 2 27.2212996883 14.6748417228 9.90900404846
511 29 2 27.7327096896 15.336601098 10.5199317128
512 29 2 28.0062682526 16.177459731 11.0592096958
513 29 2 28.0092051318 17.1171695679 11.4946807836
514 29 2 27.733415393 18.0664729452 11.8036490488
515 29 2 27.1961981222 18.935237814 11.9749484293
516 29 2 26.4386797324 19.6406726583 12.0099604376
517 29 2 25.5220655734 20.1148723739 11.9224882461
518 29 2 24.5220614834 20.3110073533 11.7374986221
519 29 2 23.5219737213 20.2075916834 11.4888463782
520 29 2 22.605116172 19.8104414388 11.2161887386
521 29 2 21.847216857 19.1521445867 10.9613708545
522 29 2 21.3095158449 18.2890908174 10.7646119056
523 30 1 20.5229943275 18.4919756196 23.441673392
524 30 1 24.8840291527 15.9530417525 25.6488944954
525 30 2 20.4324320459 19.0070937624 23.6256095866
526 30 2 20.2829133411 19.8685204121 24.180845172
527 30 2 20.1858585178 20.5357730924 24.9670083185
528 30 2 20.1678895522 20.9547258956 25.9140320437
529 30 2 20.2484202872 21.093883745 26.9371880263
530 30 2 20.4378869931 20.9472529561 27.9448090117
531 30 2 20.7367971732 20.5348875191 28.8466436537
532 30 2 21.1356833088 19.9010613155 29.5620823063
533 30 2 21.615965758 19.1102328573 30.0275040396
534 30 2 22.1516461631 18.2411703357 30.2020752519
535 30 2 22.7116770227 17.3797724403 30.0714713726
536 30 2 23.2627914581 16.6112392827 29.6491824481
537 30 2 23.7725352618 16.0123069901 28.975283617
538 30 2 24.2122248755 15.6442537339 28.1127825357
539 30 2 24.5595617003 15.5473146441 27.1418766627
540 30 2 24.8006644606 15.7370146533 26.1526438102
541 31 1 12.5945110997 3.44462793901 0.572725749798
542 31 1 9.50606726135 -0.104066316691 3.43714866961
543 31 2 12.8054405764 3.86427608313 0.86731859199
544 31 2 12.9773839937 4.67292387766 1.49119556442
545 31 2 12.8515316853 5.44136274363 2.17410198322
546 31 2 12.4437729551 6.09089594139 2.87018941598
547 31 2 11.7956909446 6.55366416773 3.53240807126
548 31 2 10.9707726145 6.77883046611 4.11679506445
549 31 2 10.0486223437 6.73721366669 4.58648133333
550 31 2 9.11770653587 6.42394804991 4.91505200031
551 31 2 8.2672905133 5.85892682345 5.08895390738
552 31 2 7.57930259471 5.08498899276 5.1087308936
553 31 2 7.1208668908 4.16401487939 4.98897422787
554 31 2 6.93818540174 3.171286154 4.75699271478
555 31 2 7.0523270216 2.18862442813 4.45032368435
556 31 2 7.45730725313 1.29693377538 4.11331172175
557 31 2 8.12063365366 0.568826879697 3.79306696236
558 31 2 8.98626729844 0.0620068871564 3.53517132596
559 32 1 21.2865185645 12.7841267688 24.8974001293
560 32 1 16.5196743071 14.214297945 22.537645659
561 32 2 21.3842079924 12.2388141205 24.9191174698
562 32 2 21.3497329851 11.2120181467 25.0502653758
563 32 2 21.0311663651 10.2522605883 25.274048773
564 32 2 20.4506923938 9.44121772428 25.5532578566
565 32 2 19.6543663919 8.84701150872 25.8456311506
566 32 2 18.7079171126 8.518000722 26.1077073515
567 32 2 17.6907560168 8.47837339929 26.2987865279
568 32 2 16.6887394627 8.72594225711 26.3846396407
569 32 2 15.7863434871 9.23234404912 26.3406282849
570 32 2 15.0589643944 9.94562468166 26.1539503114
571 32 2 14.5660468998 10.7949744731 25.8248066553
572 32 2 14.3456661514 11.6971819709 25.3663830218
573 32 2 14.4110574415 12.564218105 24.8036480998
574 32 2 14.7494099003 13.311259434 24.1710778369
575 32 2 15.3230341189 13.8644192203 23.5095131932
576 32 2 16.0727972807 14.1674816995 22.8624377679
577 33 1 25.8163769566 6.546528417 16.6222277352
578 33 1 31.2185211279 7.19950556087 15.7695295884
579 33 2 25.6806641552 6.31973689646 17.1095965826
580 33 2 25.5867658022 5.73443706995 17.9588936352
581 33 2 25.7179268131 4.99354340182 18.6706320933
582 33 2 26.0749121314 4.17266510582 19.1916105735
583 33 2 26.6379043632 3.35470144611 19.486014156
584 33 2 27.3683099968 2.62228603776 19.53867867
585 33 2 28.2122769369 2.05025535925 19.3564728031
586 33 2 29.1056027536 1.69882792055 18.9676720679
587 33 2 29.9795862937 1.60811575881 18.4193816828
588 33 2 30.7672893201 1.79446850115 17.7732432544
589 33 2 31.4096374729 2.24898320829 17.0998165674
590 33 2 31.8608044922 2.93831581641 16.4721485444
591 33 2 32.092388968 3.80772021994 15.9591155193
592 33 2 32.0960029333 4.78603800375 15.6191456321
593 33 2 31.8840363703 5.79218404483 15.4948935041
594 33 2 31.4885279484 6.74253686529 15.609352562