LAMMPS input file for bananas

648 atoms

2 atom types

0 42.5063427673 xlo xhi
0 42.5063427673 ylo yhi
0 42.5063427673 zlo zhi

Masses

 1 1
 2 1

Atoms

1 1 1 0.615015870344 32.8954698811 25.915083549
2 1 1 5.3697130853 35.5398008535 26.8733941269
3 1 2 0.640815756807 32.3437266688 25.9629936893
4 1 2 0.874937153229 31.3358294596 25.9102642035
5 1 2 1.34109273155 30.4371183806 25.6901111101
6 1 2 2.00859939696 29.7274469874 25.3376180231
7 1 2 2.82842144121 29.2694383733 24.8999309929
8 1 2 3.7376400164 29.1027772421 24.4319612706
9 1 2 4.66518801975 29.2405927531 23.9913802932
10 1 2 5.53832767009 29.6682618337 23.6333630873
11 1 2 6.28928036223 30.3447420328 23.4055592121
12 1 2 6.86140450562 31.2063124311 23.3437496298
13 1 2 7.21435825398 32.1723816323 23.4685853666
14 1 2 7.32777655672 33.1528334535 23.7837052264
15 1 2 7.20312737892 34.0562407745 24.2754041242
16 1 2 6.8635779002 34.7981988751 24.9138822676
17 1 2 6.35188288825 35.3090187004 25.6559613281
18 1 2 5.72648771598 35.5400788313 26.4490200306
19 2 1 34.5454454604 19.3038879088 17.8214379438
20 2 1 32.0769036308 14.8727021251 20.0097900285
21 2 2 34.4463376848 19.7809467465 18.0859641282
22 2 2 34.0364573132 20.6054932474 18.560907451
23 2 2 33.3684224617 21.272344756 18.9880941945
24 2 2 32.5031719818 21.7150769753 19.3469532201
25 2 2 31.5196204024 21.8876934824 19.6231412781
26 2 2 30.5074650816 21.7688181796 19.8098503569
27 2 2 29.5590105318 21.3636436687 19.9084282141
28 2 2 28.7607551106 20.7034579591 19.9282555332
29 2 2 28.1855069264 19.8427926494 19.8858908983
30 2 2 27.885747574 18.8544525176 19.8035615242
31 2 2 27.8888485774 17.822879561 19.7071373046
32 2 2 28.1945765489 16.836456333 19.6237728409
33 2 2 28.7751144611 15.9794501099 19.5794323726
34 2 2 29.5775970955 15.324332154 19.5965232062
35 2 2 30.528929565 14.9251721517 19.6918533495
36 2 2 31.542449718 14.8127099059 19.875099506
37 3 1 37.6184825147 12.4291074601 12.8552778603
38 3 1 40.7851419443 7.90274817303 12.9035554167
39 3 2 37.0752941552 12.3348032034 12.9138841849
40 3 2 36.0958429266 12.0029529658 12.8506329259
41 3 2 35.2410817872 11.4840380497 12.5794121384
42 3 2 34.5888086156 10.8110385967 12.1377545141
43 3 2 34.1983650534 10.0309791422 11.5787276066
44 3 2 34.1052276733 9.20064245416 10.9660968661
45 3 2 34.3177743839 8.38139393642 10.3685135889
46 3 2 34.816520806 7.63358833552 9.85325753523
47 3 2 35.5558962217 7.01106856714 9.48010455882
48 3 2 36.4683972234 6.55625807817 9.29587819786
49 3 2 37.4707404693 6.29629406293 9.33018183445
50 3 2 38.4714537368 6.24055398044 9.59270042549
51 3 2 39.3792133717 6.3798008241 10.0723177448
52 3 2 40.1111681949 6.68702505014 10.7381295972
53 3 2 40.6004911662 7.11990642535 11.5422606537
54 3 2 40.8024704898 7.62467140323 12.4242281594
55 4 1 10.9372160258 32.9319806595 6.36777456968
56 4 1 13.0906624415 35.3618547673 10.837267988
57 4 2 10.7306858746 33.2803750087 5.98916096435
58 4 2 10.2324034576 34.023470335 5.46669184554
59 4 2 9.63929341135 34.8383048501 5.2264519713
60 4 2 9.0181224102 35.6650072642 5.29094783957
61 4 2 8.43821480955 36.4426245602 5.65491009982
62 4 2 7.96513391612 37.1146776983 6.28577384032
63 4 2 7.6547060678 37.6343095295 7.12664679278
64 4 2 7.54793221216 37.9685556996 8.10149491053
65 4 2 7.66725077964 38.101349262 9.12207266868
66 4 2 8.01449248061 38.0349851367 10.0959664078
67 4 2 8.57071344101 37.7899109347 10.9350175922
68 4 2 9.29792188583 37.4028632128 11.5633582243
69 4 2 10.1425409879 36.9235190349 11.9243260105
70 4 2 11.0402922523 36.4099680398 11.9856289774
71 4 2 11.9220543298 35.9234177265 11.7422887988
72 4 2 12.7201632427 35.522614554 11.2170945572
73 5 1 5.58303804538 25.2610763315 14.1670152827
74 5 1 4.12819962224 29.7418625353 11.2818824919
75 5 2 5.23918463884 25.1280606244 14.5810844128
76 5 2 4.62232192618 25.1059219201 15.4132143802
77 5 2 4.07383940254 25.3822980513 16.2476202566
78 5 2 3.62659645393 25.935981689 17.0005201075
79 5 2 3.30422474966 26.7204896665 17.5955610545
80 5 2 3.1189742789 27.6682997953 17.9707786369
81 5 2 3.07059679687 28.6970053322 18.0842447056
82 5 2 3.1463684517 29.7168261339 17.9178890628
83 5 2 3.32224952949 30.6387918769 17.4791465115
84 5 2 3.56507561004 31.3828514649 16.8002791935
85 5 2 3.83558041507 31.8851694718 15.9354359814
86 5 2 4.09197482452 32.1039445709 14.9557169533
87 5 2 4.29375584321 32.0232196134 13.942692811
88 5 2 4.40539834052 31.6543360802 12.9809699284
89 5 2 4.39959307116 31.0349003365 12.1504787067
90 5 2 4.25973583986 30.2253559114 11.5191881319
91 6 1 41.7287532021 30.3467309424 5.78197370427
92 6 1 39.3318745923 26.8387277226 9.31282026015
93 6 2 41.6353431127 30.883212476 5.88610682745
94 6 2 41.2358668173 31.8173639778 6.08915773824
95 6 2 40.5775104137 32.588250028 6.30305386855
96 6 2 39.7208344697 33.1260048041 6.52750016252
97 6 2 38.7444758493 33.3820117763 6.76123994503
98 6 2 37.7379801728 33.3333349739 7.00216946434
99 6 2 36.7936399724 32.9848095379 7.24752964341
100 6 2 35.9980824747 32.368601011 7.49415756241
101 6 2 35.4243737608 31.5412735341 7.73877475041
102 6 2 35.125358988 30.578634176 7.97828600921
103 6 2 35.1288456951 29.568823322 8.21006153244
104 6 2 35.4350692195 28.604280913 8.43217660534
105 6 2 36.0166712468 27.7733207924 8.64358703737
106 6 2 36.8211934483 27.1520811346 8.8442243374
107 6 2 37.775858917 26.7975846548 9.03500195649
108 6 2 38.7942055884 26.7425411403 9.21773202926
109 7 1 16.6778575385 22.1617943944 27.6883997198
110 7 1 15.8495465673 17.2772597626 30.1324155601
111 7 2 16.4992669326 22.6004629959 27.9765955587
112 7 2 15.9664609917 23.2957531017 28.5298943109
113 7 2 15.2222595439 23.7696815826 29.0730388693
114 7 2 14.338947031 23.9739740107 29.5745103238
115 7 2 13.4014874967 23.8849325637 30.0065881563
116 7 2 12.4997803407 23.505596018 30.3478768921
117 7 2 11.7204662293 22.8654627724 30.5852562397
118 7 2 11.1390300295 22.0178021477 30.7150769709
119 7 2 10.812920566 21.0347990309 30.7434935378
120 7 2 10.7763143136 20.0009744151 30.6859031109
121 7 2 11.0370003034 19.0054815374 30.5655421685
122 7 2 11.5756701729 18.1339797995 30.4113685536
123 7 2 12.3476780722 17.4608271417 30.2554220437
124 7 2 13.2871100137 17.0423025164 30.1299040114
125 7 2 14.3127917557 16.9114762108 30.0642423543
126 7 2 15.3356876176 17.0751955797 30.0824092219
127 8 1 22.2519948684 36.0765914646 26.4992088294
128 8 1 21.4332761283 36.106856487 31.9624290075
129 8 2 21.9365258036 36.4320940758 26.2137639999
130 8 2 21.1719961201 36.9977682271 25.8027200502
131 8 2 20.2417693329 37.4029978666 25.5931560386
132 8 2 19.2302419214 37.6260295513 25.6159414422
133 8 2 18.2292206995 37.6617166951 25.88076771
134 8 2 17.3295548698 37.521988666 26.3752649132
135 8 2 16.612855362 37.2347634561 27.0661292309
136 8 2 16.1440562145 36.8414030314 27.9021585048
137 8 2 15.9654960105 36.392943299 28.8189191786
138 8 2 16.0930588293 35.9454423206 29.744619245
139 8 2 16.5147264546 35.5548707701 30.6066518945
140 8 2 17.1916738033 35.2720103562 31.3382134329
141 8 2 18.0618077278 35.1378252054 31.8843922589
142 8 2 19.0454266404 35.1797280912 32.2071739099
143 8 2 20.0524851 35.4090818334 32.2889059787
144 8 2 20.9908012135 35.8201636072 32.1339070834
145 9 1 20.4662467609 7.9928913181 39.9756572017
146 9 1 16.5099625622 4.80276926376 42.1410503944
147 9 2 20.3400429878 8.53177043808 39.9430460109
148 9 2 19.9079350338 9.45916875946 39.7797515508
149 9 2 19.2480462275 10.2112558246 39.5107500248
150 9 2 18.4108289677 10.7222117157 39.1769217031
151 9 2 17.4628986675 10.948194977 38.8250556452
152 9 2 16.4809619377 10.8713386463 38.5035850019
153 9 2 15.5448249846 10.5013787807 38.2581724634
154 9 2 14.7301194869 9.8747670413 38.1275482268
155 9 2 14.1014089709 9.0513482213 38.1399798423
156 9 2 13.7063040173 8.10890555342 38.3106957014
157 9 2 13.5711226842 7.13607097595 38.6404970102
158 9 2 13.6984916866 6.22424656852 39.1156847609
159 9 2 14.0671069779 5.45927349681 39.7093083603
160 9 2 14.6336755572 4.91360781977 40.3836221041
161 9 2 15.3368615103 4.63971631347 41.093525597
162 9 2 16.1028766149 4.66529426469 41.7906745332
163 10 1 38.4760567423 39.0654085091 17.035147675
164 10 1 35.7963611656 35.6427974579 20.4443933788
165 10 2 38.4342992723 39.6031149258 17.1636377961
166 10 2 38.1260290215 40.5604779773 17.4123855623
167 10 2 37.544854535 41.3790583432 17.6685347612
168 10 2 36.7445258713 41.9837390719 17.9279287812
169 10 2 35.7987684066 42.3188995924 18.1861152538
170 10 2 34.7945629635 42.3534853801 18.4387518752
171 10 2 33.8242177416 42.0838384942 18.682002196
172 10 2 32.9769546721 41.5340309887 18.9128853026
173 10 2 32.3307770765 40.7536708092 19.1295475202
174 10 2 31.9453598732 39.8133801617 19.33143137
175 10 2 31.8566103677 38.7983584866 19.5193263817
176 10 2 32.0733953977 37.8006167577 19.6952971306
177 10 2 32.5767331446 36.9105909281 19.8624950562
178 10 2 33.3215232757 36.2088989345 20.0248712178
179 10 2 34.2406577187 35.7589925876 20.1868161655
180 10 2 35.2511373831 35.6013741098 20.3527597532
181 11 1 28.4634052159 30.8130695628 20.3274564607
182 11 1 25.5878992796 27.0388459528 23.1567130439
183 11 2 28.4633338358 31.3212272622 20.5491709966
184 11 2 28.2302362635 32.2388618905 20.9699586175
185 11 2 27.7148666795 33.0380776561 21.3811743311
186 11 2 26.9652154083 33.6420891225 21.7641144456
187 11 2 26.0506269238 33.9919032029 22.1026525147
188 11 2 25.055479286 34.0516962232 22.3847092199
189 11 2 24.0714933066 33.8120791535 22.6033533678
190 11 2 23.1893724418 33.2909533936 22.7574336504
191 11 2 22.490535415 32.5318791079 22.8516835834
192 11 2 22.0396951176 31.6001048328 22.8962900587
193 11 2 21.8789602019 30.5766202473 22.9059648371
194 11 2 22.02399699 29.5507741801 22.8986036098
195 11 2 22.4626015307 28.6121307025 22.8936548546
196 11 2 23.1558119565 27.8423056031 22.910347159
197 11 2 24.041459754 27.3075273262 22.9659365856
198 11 2 25.039836258 27.0526004266 23.0741338283
199 12 1 20.6898517622 23.4236151583 13.7815287309
200 12 1 15.5254860015 21.793793504 14.8728576117
201 12 2 20.8729221244 23.8439862066 14.0932257187
202 12 2 21.0127866659 24.7305985403 14.6107259516
203 12 2 20.8729274573 25.6734099978 15.0169229094
204 12 2 20.4584373043 26.582273666 15.291904285
205 12 2 19.7994408895 27.370136882 15.4277177209
206 12 2 18.9483489876 27.9609758507 15.4290956453
207 12 2 17.9750813634 28.2967250105 15.3130239239
208 12 2 16.9606937724 28.3425695542 15.1071936438
209 12 2 15.9899899451 28.0901187054 14.8474771449
210 12 2 15.1437919537 27.5581705156 14.5746583517
211 12 2 14.4915734964 26.7909984716 14.330715428
212 12 2 14.085127555 25.8543160862 14.1549945791
213 12 2 13.9538456036 24.8292872864 14.0806237507
214 12 2 14.102038654 23.8051285391 14.131493105
215 12 2 14.5085443187 22.8709770079 14.320077496
216 12 2 15.1286557054 22.1077659394 14.6462994206
217 13 1 39.7792912724 6.16208343278 22.0652186737
218 13 1 36.6488150662 3.54638987038 25.7903035011
219 13 2 39.7814916406 6.71478695413 22.1087567481
220 13 2 39.5518236758 7.7216075428 22.1925119826
221 13 2 39.0375947452 8.61590203497 22.2887199836
222 13 2 38.2855566568 9.31856766384 22.4076726584
223 13 2 37.3641368876 9.76796812135 22.5575887977
224 13 2 36.357201602 9.9255515429 22.7438649556
225 13 2 35.3564114752 9.77936440673 22.9685835674
226 13 2 34.4528670676 9.34514106554 23.2303231415
227 13 2 33.7288052523 8.66486960223 23.5242878248
228 13 2 33.2501035437 7.80296472843 23.8427445313
229 13 2 33.0602755384 6.84039655567 24.1757277926
230 13 2 33.1765047668 5.86731038611 24.5119480839
231 13 2 33.5880784607 4.97481020924 24.8398208335
232 13 2 34.2573639932 4.24665481666 25.1485223258
233 13 2 35.1232389921 3.75162341219 25.4289762544
234 13 2 36.1066624808 3.53724657116 25.6746810025
235 14 1 23.7024609313 20.2243290292 33.8789026996
236 14 1 21.5665735281 17.9756428283 38.4504873737
237 14 2 24.2428198379 20.1274192256 33.8014279936
238 14 2 25.2705382457 20.0213657834 33.8788718637
239 14 2 26.2403442816 20.0057409661 34.2431274455
240 14 2 27.0654530219 20.0638051375 34.8670458135
241 14 2 27.6722683143 20.1721021069 35.6998104732
242 14 2 28.0070908709 20.3025970985 36.671569149
243 14 2 28.0410128148 20.4252320462 37.6998006319
244 14 2 27.7725525556 20.5106653056 38.6968363678
245 14 2 27.2277898327 20.532946067 39.5778512113
246 14 2 26.4579886162 20.471879702 40.2685950115
247 14 2 25.5349245339 20.31486845 40.7121603142
248 14 2 24.5443427138 20.0580596705 40.874169325
249 14 2 23.5781423453 19.7066970008 40.7459073526
250 14 2 22.7260003139 19.2746424125 40.3451171304
251 14 2 22.0671973923 18.7831127302 39.7143816129
252 14 2 21.6633920101 18.258745774 38.917242654
253 15 1 15.1297058264 25.0238258981 21.479972255
254 15 1 10.7651996527 25.7368254282 18.1692761665
255 15 2 15.021280702 25.0669758548 22.0219719429
256 15 2 14.7148063124 25.3487148828 22.9707324922
257 15 2 14.2838566664 25.8612722203 23.7613129053
258 15 2 13.7504987069 26.5494812395 24.3228711338
259 15 2 13.1461336213 27.3421651316 24.6054398895
260 15 2 12.5086347064 28.1586244821 24.5844810287
261 15 2 11.8788953194 28.915992807 24.2631221391
262 15 2 11.2971015568 29.5367896115 23.6718714676
263 15 2 10.7990694 29.9559825299 22.865837176
264 15 2 10.4129801837 30.1269148516 21.919704379
265 15 2 10.1568119426 30.0255581561 20.9209277955
266 15 2 10.0367007622 29.652702439 19.9617604849
267 15 2 10.0463814902 29.0338841061 19.1308452272
268 15 2 10.1677587889 28.217058398 18.5051349706
269 15 2 10.3725564766 27.2682283987 18.1428787759
270 15 2 10.6248948264 26.2654290301 18.0783125703
271 16 1 40.9707558585 33.0107840223 6.94876325947
272 16 1 36.6987533304 30.3241608714 4.70153351899
273 16 2 40.9963077519 32.9876154068 7.50210935736
274 16 2 40.8192039222 33.0121026009 8.52264089631
275 16 2 40.360187876 33.1072414757 9.44660132566
276 16 2 39.6554092752 33.2463290172 10.1931880861
277 16 2 38.7634183816 33.3986564079 10.6977657541
278 16 2 37.7598293573 33.5323080536 10.9177573881
279 16 2 36.7304282355 33.6170706041 10.836525303
280 16 2 35.7633537533 33.6271868199 10.4648875505
281 16 2 34.9410637409 33.543703275 9.84013188264
282 16 2 34.3328193114 33.3561979117 9.02261707305
283 16 2 33.988371895 33.0637299829 8.09027137585
284 16 2 33.933428529 32.6749257988 7.13148957369
285 16 2 34.1673087305 32.2071924619 6.2370760295
286 16 2 34.6630065205 31.6851312558 5.49196811155
287 16 2 35.3696519462 31.1382953045 4.96749437935
288 16 2 36.217147742 30.5984958835 4.71487317604
289 17 1 31.3842139098 22.5300744526 27.6492530276
290 17 1 31.156965749 20.0792364102 32.5949321745
291 17 2 31.6932210513 22.9900124124 27.6304581429
292 17 2 32.1431844382 23.9106710095 27.7833329583
293 17 2 32.4042013999 24.8327170821 28.1772253255
294 17 2 32.4671340532 25.6674340677 28.7877472713
295 17 2 32.3408993705 26.3340652166 29.5707656155
296 17 2 32.0516564209 26.7671743541 30.466424592
297 17 2 31.6404220416 26.9226102125 31.4046015425
298 17 2 31.1593322623 26.7815307013 32.3112984086
299 17 2 30.6668902461 26.3521203135 33.1153864577
300 17 2 30.2226338817 25.6688441311 33.7550894765
301 17 2 29.8817090648 24.7893064242 34.1836145081
302 17 2 29.6898432964 23.7890001768 34.3734169042
303 17 2 29.679177744 22.7544261024 34.3187109473
304 17 2 29.8653376595 21.7752083353 34.0359972022
305 17 2 30.2460081793 20.9359254304 33.5625585346
306 17 2 30.8011453185 20.3084012539 32.9530618769
307 18 1 28.212686988 30.9937866853 42.019928813
308 18 1 23.0803918189 32.8320728555 41.1264852982
309 18 2 28.4879837337 30.8389642891 41.5642717978
310 18 2 28.807631536 30.4249415446 40.669922615
311 18 2 28.8443819984 29.8937428618 39.7811440295
312 18 2 28.5891557782 29.3070148308 38.9662453822
313 18 2 28.0594864269 28.7314653934 38.2868020552
314 18 2 27.2979222539 28.2327835922 37.7920430404
315 18 2 26.3681481618 27.8696521906 37.5143638479
316 18 2 25.3491809377 27.688398895 37.4663737424
317 18 2 24.3281670843 27.7187737089 37.6397464423
318 18 2 23.3924396492 27.971237299 38.0059790378
319 18 2 22.6215580507 28.4360075337 38.5189899551
320 18 2 22.0800564499 29.0839510982 39.1193191687
321 18 2 21.8115616341 29.8692389184 39.7395478238
322 18 2 21.8348165519 30.7335233581 40.3104432846
323 18 2 22.1419719433 31.6112564507 40.7672695043
324 18 2 22.699301779 32.4356644205 41.0556875423
325 19 1 29.873249188 13.1062924514 17.7207168036
326 19 1 26.2920214368 13.060307933 21.9267463184
327 19 2 30.2170715779 12.6717648668 17.7019143963
328 19 2 30.8979384702 11.9143959532 17.8923418487
329 19 2 31.5641058014 11.2765335768 18.3643616438
330 19 2 32.1433106678 10.8019715321 19.080436081
331 19 2 32.5712165622 10.5196192247 19.9807825317
332 19 2 32.7972774743 10.4408666564 20.9888224655
333 19 2 32.7893450243 10.558546257 22.0181613791
334 19 2 32.536598702 10.8475861889 22.9804634239
335 19 2 32.0505321276 11.2672955786 23.793502983
336 19 2 31.3639054382 11.7650733806 24.3886593158
337 19 2 30.5277592897 12.2812028223 24.7171711556
338 19 2 29.6067626369 12.7542944282 24.7545811686
339 19 2 28.6733183313 13.1268815066 24.5029651744
340 19 2 27.8009637947 13.3506580847 23.9907429405
341 19 2 27.0576682798 13.3908818692 23.270087797
342 19 2 26.4996376543 13.2295409131 22.4121711763
343 20 1 13.5453296862 9.78921968478 21.4148689626
344 20 1 14.2136359733 6.03886811107 17.4140914329
345 20 2 13.9585864764 9.81351656211 21.7836644006
346 20 2 14.6991072554 9.62608517136 22.4836275859
347 20 2 15.3520203809 9.14978078301 23.1319242706
348 20 2 15.8731967649 8.42535547841 23.6582636725
349 20 2 16.2305147716 7.5161768972 24.0034710895
350 20 2 16.4067880179 6.50245244643 24.1248815162
351 20 2 16.401331867 5.47391860969 24.0002284445
352 20 2 16.2300258309 4.52166170656 23.6296733965
353 20 2 15.9238661953 3.72981561796 23.0357912022
354 20 2 15.5261407911 3.16789320782 22.2615123642
355 20 2 15.0884834243 2.88445041131 21.3662100568
356 20 2 14.6661675925 2.90266049113 20.4202884204
357 20 2 14.3130684534 3.21820185655 19.4987654115
358 20 2 14.0767522482 3.79965196484 18.6744351173
359 20 2 13.9941407658 4.59135140208 18.0112327687
360 20 2 14.0881460204 5.51847708998 17.5584072149
361 21 1 24.4674247296 24.6155034049 6.79104382822
362 21 1 23.0899330762 25.4926837407 12.0684544115
363 21 2 24.8706495625 24.9430236119 6.5973382884
364 21 2 25.4910974513 25.7269258468 6.32532410747
365 21 2 25.899192685 26.6715508564 6.20452724235
366 21 2 26.069443663 27.6919716676 6.26114864981
367 21 2 25.9980376527 28.6963527225 6.50521808524
368 21 2 25.7031883101 29.5943204443 6.9296799173
369 21 2 25.2234755537 30.3052005471 7.51103622984
370 21 2 24.6143291082 30.7653712811 8.21148859416
371 21 2 23.9429762331 30.9340623858 8.98238329473
372 21 2 23.2823141374 30.7970711895 9.7686459854
373 21 2 22.7042655946 30.3680571455 10.5138015687
374 21 2 22.2732233733 29.6872968091 11.1651217503
375 21 2 22.040181009 28.8180127371 11.6784310818
376 21 2 22.0380848793 27.8406109211 12.0221334348
377 21 2 22.2788312299 26.845351996 12.180091904
378 21 2 22.7521818634 25.9241242247 12.1530996424
379 22 1 7.17875334952 38.0854174464 13.8764535705
380 22 1 4.47304613046 34.1128512766 16.5996607849
381 22 2 6.99685884095 38.6002053092 13.9728352705
382 22 2 6.44682191029 39.4683293062 14.1042510681
383 22 2 5.66526475996 40.1444964575 14.1778473688
384 22 2 4.71936023113 40.5663258174 14.205679447
385 22 2 3.69126098924 40.6946186504 14.2039738637
386 22 2 2.67061152816 40.5169312906 14.1916494588
387 22 2 1.74637731416 40.048709349 14.1885929494
388 22 2 0.998735821398 39.3318798872 14.2138463087
389 22 2 0.491768569516 38.4310298777 14.2838711409
390 22 2 0.267620264348 37.4275192743 14.4110482504
391 22 2 0.342657420648 36.4120652692 14.602549164
392 22 2 0.705976598011 35.476473664 14.8596824658
393 22 2 1.32039822032 34.705271016 15.1777745232
394 22 2 2.12585539474 34.1680002684 15.5465954758
395 22 2 3.04486884846 33.9128820968 15.95129166
396 22 2 3.9896089573 33.9624197237 16.373739481
397 23 1 32.2310374587 19.0006353848 8.14909901798
398 23 1 30.6678198442 16.0848369341 12.5731764524
399 23 2 32.4507344505 19.4969538608 8.26216002011
400 23 2 32.6679687834 20.4502348855 8.60496396364
401 23 2 32.6258988418 21.3572275323 9.10400751874
402 23 2 32.338571353 22.1314901424 9.7296354721
403 23 2 31.8423876143 22.698679045 10.4406547808
404 23 2 31.1927856121 23.0033247845 11.1880892082
405 23 2 30.4591869972 23.0138880128 11.9196433768
406 23 2 29.7186694873 22.7256342166 12.5844693524
407 23 2 29.048941439 22.1610652558 13.137801297
408 23 2 28.5212589384 21.3678683791 13.5450357558
409 23 2 28.1939309998 20.4145696584 13.7848856692
410 23 2 28.1070048546 19.384288021 13.8513206315
411 23 2 28.2786157533 18.3671591814 13.7541165464
412 23 2 28.7033339857 17.4521200114 13.5179645794
413 23 2 29.352659785 16.7188021825 13.1802206239
414 23 2 30.1776210045 16.2302739516 12.7875004117
415 24 1 20.0161726282 18.1132250633 21.7474441371
416 24 1 19.6704363612 12.6678036331 22.6110661278
417 24 2 19.988347848 18.4245825497 22.2053348286
418 24 2 19.7449008465 18.8770262405 23.1050449348
419 24 2 19.2813682144 19.1165538665 24.00015053
420 24 2 18.6499887838 19.1107366508 24.821598146
421 24 2 17.9183001737 18.8495083434 25.5070480424
422 24 2 17.1629829169 18.3460827326 26.0065563077
423 24 2 16.4628712339 17.6357492434 26.2871271127
424 24 2 15.8917675049 16.7726564011 26.335720193
425 24 2 15.5117153799 15.8248763376 26.1604394334
426 24 2 15.3673446657 14.8682001987 25.789794221
427 24 2 15.4818034386 13.9792299838 25.2701008908
428 24 2 15.8546481588 13.2283964782 24.6612611149
429 24 2 16.4618840981 12.6735396754 24.0313020261
430 24 2 17.2581523951 12.354636816 23.450175726
431 24 2 18.1808643942 12.2901585698 22.9833833378
432 24 2 19.1559064344 12.4753854826 22.6860047546
433 25 1 22.0065716921 21.0906565871 12.7179242181
434 25 1 23.2996355676 16.1152402015 14.7405978609
435 25 2 21.486710339 21.2554777766 12.8177227006
436 25 2 20.4600124884 21.3516045639 12.9182273051
437 25 2 19.441824301 21.159960794 12.914291357
438 25 2 18.5221385883 20.6914567802 12.8241127004
439 25 2 17.7819699246 19.9822379068 12.6737499722
440 25 2 17.2859703849 19.0903900742 12.4947474264
441 25 2 17.0765366812 18.0906453246 12.3212597598
442 25 2 17.1699458155 17.0675702154 12.1869390026
443 25 2 17.5548714743 16.1078578042 12.1218672262
444 25 2 18.1934163926 15.2924258079 12.1498146421
445 25 2 19.0245665871 14.6890411693 12.2860730114
446 25 2 19.9697526188 14.3461432812 12.536061841
447 25 2 20.9400109868 14.2884288654 12.8948344105
448 25 2 21.8440929138 14.5146009324 13.3475286524
449 25 2 22.5967814282 14.9974869984 13.8707217895
450 25 2 23.1266586632 15.6865157851 14.4345652591
451 26 1 17.8340506733 9.63233566729 12.1920588004
452 26 1 18.1955480167 5.82800969901 16.1813462881
453 26 2 18.0643570171 9.48700689057 11.7091301072
454 26 2 18.6798145606 9.16195823694 10.9416632375
455 26 2 19.481810767 8.77801363773 10.4098374758
456 26 2 20.3926821708 8.35153464341 10.161082648
457 26 2 21.3248416231 7.90275970087 10.2170274209
458 26 2 22.1887616264 7.4539594731 10.5715279071
459 26 2 22.9011345264 7.02740692776 11.1912276638
460 26 2 23.3924657825 6.64334721572 12.0185980437
461 26 2 23.613408209 6.31815237969 12.9771817771
462 26 2 23.5392598392 6.06282908624 13.978561848
463 26 2 23.172215444 5.88201539759 14.9304204683
464 26 2 22.5411664841 5.77355802463 15.7449535981
465 26 2 21.6990677305 5.72870859346 16.3468740488
466 26 2 20.718110579 5.73292103631 16.6802737092
467 26 2 19.6831429973 5.76717742671 16.7137194204
468 26 2 18.6839358591 5.80972141268 16.4431180244
469 27 1 35.1611132749 27.1059252705 4.91483460194
470 27 1 40.5183858561 27.0657118668 3.56724251439
471 27 2 35.0561067267 27.0521548648 5.45655773819
472 27 2 35.0050859372 26.7674273509 6.45143317413
473 27 2 35.158258279 26.2755933431 7.35037007609
474 27 2 35.5158411836 25.6318626689 8.07920153571
475 27 2 36.0594206059 24.9052901305 8.57926530104
476 27 2 36.7536294152 24.172481345 8.81275068403
477 27 2 37.5493710152 23.5106103466 8.76614490369
478 27 2 38.3882943666 22.9903853798 8.45146473993
479 27 2 39.2081125293 22.6696040319 7.90516123622
480 27 2 39.9482799498 22.5878851374 7.18479728439
481 27 2 40.555511027 22.7630576272 6.36380092089
482 27 2 40.9886369521 23.1895354691 5.52477255752
483 27 2 41.2223581357 23.8388268197 4.7519561747
484 27 2 41.2495501975 24.6621309798 4.12356070776
485 27 2 41.0819133347 25.5947864478 3.70463151157
486 27 2 40.7489058802 26.5621646426 3.54112165027
487 28 1 9.38581942407 24.6351636676 19.9533502311
488 28 1 6.76139452329 21.4523241839 23.6275736622
489 28 2 9.31746805189 25.180565477 20.0257832642
490 28 2 8.96159786447 26.1429875649 20.1691364843
491 28 2 8.33892783255 26.9557941169 20.3274954168
492 28 2 7.50647580554 27.5463520357 20.5055824137
493 28 2 6.54038070095 27.8622855927 20.7063216665
494 28 2 5.52896264565 27.8762503359 20.9305726744
495 28 2 4.56467283232 27.5884254637 21.1770519028
496 28 2 3.73566684035 27.0264974912 21.4424497741
497 28 2 3.11776949038 26.2431366984 21.7217323273
498 28 2 2.7675636146 25.3111963754 22.0086000494
499 28 2 2.71723268278 24.3170724389 22.2960620598
500 28 2 2.97162736506 23.3528286761 22.5770733099
501 28 2 3.50782340631 22.507805376 22.8451767207
502 28 2 4.27721111071 21.8604762014 23.0950917285
503 28 2 5.20992598563 21.4712955235 23.3231955935
504 28 2 6.22121670336 21.3771881683 23.5278536036
505 29 1 36.2687149197 28.9663095477 16.1555772797
506 29 1 33.9385394011 24.4021070119 14.0924901932
507 29 2 36.1500070394 29.069311577 16.687254446
508 29 2 35.7062383054 29.2300854939 17.6095727585
509 29 2 35.0106009837 29.3219536475 18.3718712369
510 29 2 34.1265694734 29.3188568582 18.9121755121
511 29 2 33.1347898001 29.2033917474 19.1887453931
512 29 2 32.1257289467 28.9683970087 19.183879374
513 29 2 31.1914290295 28.6176061415 18.9055280793
514 29 2 30.4171179051 28.165307153 18.3865695849
515 29 2 29.8734408793 27.6350402446 17.6818126704
516 29 2 29.6100215763 27.0574521847 16.8630011444
517 29 2 29.650938878 26.4675029386 16.0122745887
518 29 2 29.9925321981 25.9012791605 15.2146815546
519 29 2 30.6037351348 25.3927049916 14.5504276151
520 29 2 31.4289070904 24.9704499654 14.0875648411
521 29 2 32.3929047632 24.6553158562 13.8757890368
522 29 2 33.4079312581 24.4583406529 13.9419101005
523 30 1 37.1264289154 9.52272353467 36.9938952418
524 30 1 34.284854513 6.3768915285 40.5360961064
525 30 2 37.0741686182 10.069002111 37.0728266448
526 30 2 36.7464574712 11.040726038 37.220502049
527 30 2 36.146752483 11.8717699608 37.3727187918
528 30 2 35.3294357063 12.4875457788 37.5347787796
529 30 2 34.3687239263 12.8330865037 37.7110867332
530 30 2 33.351904 12.8780563538 37.9047487095
531 30 2 32.3713768914 12.6195157792 38.1172889927
532 30 2 31.5162355718 12.0821893942 38.3485111596
533 30 2 30.8641444324 11.3162123942 38.5965159833
534 30 2 30.4742603834 10.3925608673 38.8578745426
535 30 2 30.3818408597 9.39658251337 39.127940759
536 30 2 30.5950301995 8.42021742901 39.4012748744
537 30 2 31.0941173101 7.55361801388 39.6721392702
538 30 2 31.833332281 6.87693182022 39.9350214365
539 30 2 32.745018189 6.45299631773 40.1851364219
540 30 2 33.7457978463 6.32161142616 40.4188629697
541 31 1 5.87494792384 25.9572365571 13.804279515
542 31 1 3.67291778837 28.2900548749 9.30683434686
543 31 2 6.37940061318 25.7391684613 13.7310990676
544 31 2 7.22066357072 25.2268368721 13.4097845953
545 31 2 7.869821993 24.63062986 12.8651924977
546 31 2 8.27582018531 24.0177044956 12.1351664867
547 31 2 8.40976585797 23.4567416824 11.2744520799
548 31 2 8.26756358137 23.0116860761 10.3497066927
549 31 2 7.87028807336 22.7359177007 9.43342399345
550 31 2 7.2622632951 22.6673865012 8.59732629886
551 31 2 6.50702244046 22.825153308 7.90582727695
552 31 2 5.68151705517 23.2076524933 7.41016081315
553 31 2 4.86910310916 23.7928346733 7.14371117864
554 31 2 4.15194332263 24.5401764511 7.11897014326
555 31 2 3.60351825376 25.394374016 7.32639838406
556 31 2 3.28192874219 26.2903839379 7.7352949691
557 31 2 3.22460017279 27.1593517018 8.29659566535
558 31 2 3.44487125186 27.9348876134 8.94734501237
559 32 1 15.4331081988 23.9557287034 17.8137511517
560 32 1 9.92908846476 24.1488924524 17.3819576893
561 32 2 15.6975063939 24.4089744529 17.6347442439
562 32 2 16.0585889946 25.225243871 17.1086514729
563 32 2 16.2084065813 25.9479602123 16.381543646
564 32 2 16.1215092686 26.5252257501 15.5255860728
565 32 2 15.7940231016 26.9184002096 14.6246883727
566 32 2 15.2440031563 27.1056227256 13.7668563377
567 32 2 14.5097878678 27.0838044024 13.0361704392
568 32 2 13.6465045847 26.8689098577 12.5051221185
569 32 2 12.7210448579 26.4945020912 12.2280063851
570 32 2 11.8059674554 26.008683306 12.2359729718
571 32 2 10.9728848237 25.4697105221 12.53418712
572 32 2 10.2859358054 24.9406856041 13.1013587815
573 32 2 9.7959395547 24.4838036955 13.8916831497
574 32 2 9.53576350737 24.1546842971 14.8390156453
575 32 2 9.517327602 23.9973016986 15.8629008177
576 32 2 9.73051780932 24.0399768392 16.8759056445
577 33 1 18.4772488246 39.676527813 8.3425112748
578 33 1 19.8251583938 34.5850835597 10.0093424809
579 33 2 18.0734672298 39.9188673962 8.635109187
580 33 2 17.2052868794 40.1696843013 9.14186728551
581 33 2 16.2630086974 40.133629654 9.57112466909
582 33 2 15.336572621 39.8081228534 9.9015963476
583 33 2 14.5144746218 39.2169660882 10.1210013839
584 33 2 13.8757005345 38.4081748319 10.2271822683
585 33 2 13.4825267091 37.4496013598 10.2283015702
586 33 2 13.3748436884 36.422750196 10.1420979412
587 33 2 13.5665202912 35.4153491937 9.99426928466
588 33 2 14.0441395067 34.5133533758 9.8161304607
589 33 2 14.7682214195 33.7931103645 9.64175901999
590 33 2 15.6768216978 33.3144014992 9.50488912638
591 33 2 16.6911776541 33.1149929278 9.43583677789
592 33 2 17.7228872533 33.2071933226 9.45873658459
593 33 2 18.6819667225 33.5767319782 9.58934196336
594 33 2 19.4850523307 34.1840595481 9.83358925606