LAMMPS input file for bananas

4320 atoms

2 atom types

0 100.793683992 xlo xhi
0 100.793683992 ylo yhi
0 100.793683992 zlo zhi

Masses

 1 1
 2 1

Atoms

1 1 1 10.7105494307 79.3607647279 20.6776332904
2 1 1 7.05069997708 76.5882044247 23.7495060748
3 1 2 10.5769627726 79.8890059303 20.5751763484
4 1 2 10.1214372201 80.7833052993 20.3179310945
5 1 2 9.42913526421 81.4900392413 20.0102053263
6 1 2 8.55534904452 81.9501501337 19.6967637527
7 1 2 7.57191250616 82.1270593861 19.4228920626
8 1 2 6.56065392777 82.0100014806 19.2302692562
9 1 2 5.60593749255 81.6150052198 19.1531687148
10 1 2 4.78697371847 80.9834327449 19.2153342742
11 1 2 4.1705996313 80.1782094862 19.4278160373
12 1 2 3.80518674831 79.2780886794 19.7879631866
13 1 2 3.71623214374 78.3704732176 20.2796655997
14 1 2 3.90403445871 77.5434491119 20.8748222432
15 1 2 4.34366668079 76.8777566866 21.5359025072
16 1 2 4.98724817463 76.4394313147 22.21936702
17 1 2 5.76830887384 76.2737844697 22.8796361455
18 1 2 6.60784784994 76.4012737064 23.473244445
19 2 1 89.828338115 62.8052715983 36.4480466717
20 2 1 94.0882203542 65.0432055934 39.1615399559
21 2 2 89.3281503484 62.9490548667 36.6391491518
22 2 2 88.4842077087 63.1546312251 37.203905022
23 2 2 87.8279109745 63.2775158041 37.9961322547
24 2 2 87.421786341 63.324992718 38.9481084812
25 2 2 87.305557485 63.311219288 39.9775506393
26 2 2 87.492524858 63.2559356409 40.9951148539
27 2 2 87.9683533857 63.1826654484 41.912539893
28 2 2 88.6923790715 63.1165718079 42.6506919425
29 2 2 89.6013154112 63.0821636935 43.1467774423
30 2 2 90.6150217889 63.1010620278 43.3600665514
31 2 2 91.6438080795 63.1900289936 43.2756055637
32 2 2 92.5966096643 63.3594402048 42.9055798989
33 2 2 93.3892877275 63.6123389975 42.2882034335
34 2 2 93.9522982842 63.944159038 41.4842354087
35 2 2 94.2370309288 64.3431405316 40.5714423872
36 2 2 94.2202395439 64.7914020968 39.6375100397
37 3 1 70.8734977964 31.9772578615 31.7399114398
38 3 1 66.6973885527 31.8270702421 35.3531573939
39 3 2 71.321531088 31.686459417 31.888518379
40 3 2 72.1355850994 31.2613928259 32.3681895901
41 3 2 72.847540478 31.0107641669 33.0779464677
42 3 2 73.3845744679 30.9419581681 33.9612981754
43 3 2 73.6898079301 31.0457869078 34.9459311717
44 3 2 73.7274897245 31.2973272693 35.9503003967
45 3 2 73.4862553299 31.6581926165 36.8910618857
46 3 2 72.9801626908 32.080031633 37.6906693494
47 3 2 72.2474108723 32.5089354154 38.2844423103
48 3 2 71.3468583183 32.8903511257 38.6264615561
49 3 2 70.3526580609 33.174054337 38.6937545524
50 3 2 69.3474988703 33.3187268551 38.4883893283
51 3 2 68.4150683941 33.2957227623 38.0372859809
52 3 2 67.632425252 33.0916794156 37.3897629806
53 3 2 67.0629753485 32.7097354162 36.613041924
54 3 2 66.7506925942 32.1692445342 35.7861204651
55 4 1 30.4263868019 7.55238353427 46.7728600957
56 4 1 28.1002861773 3.4143283725 49.5984125061
57 4 2 30.16432491 8.03926705269 46.81347527
58 4 2 29.4852352649 8.82151467125 46.83286414
59 4 2 28.6106638062 9.3755776095 46.7930014343
60 4 2 27.6148171579 9.65089379082 46.7159270254
61 4 2 26.5829558532 9.62230816047 46.6270725332
62 4 2 25.6036230651 9.29236550157 46.5529433006
63 4 2 24.7605741326 8.69107848497 46.5187025024
64 4 2 24.1251424856 7.87319209444 46.5458775895
65 4 2 23.7497377933 6.9131937678 46.6503981187
66 4 2 23.6630689629 5.898524066 46.8411438166
67 4 2 23.8675273998 4.9216066997 47.1191352162
68 4 2 24.3389690367 4.07142435511 47.4774406377
69 4 2 25.0289150014 3.42540815992 47.9018079933
70 4 2 25.8689703364 3.04238004301 48.371963826
71 4 2 26.7770580159 2.95719127281 48.863461182
72 4 2 27.6649000481 3.17754585736 49.3499078842
73 5 1 88.5640797598 67.0490344137 56.6333163966
74 5 1 85.4118703979 62.8818842082 58.4267562103
75 5 2 88.2999163738 67.4250018937 56.3230781857
76 5 2 87.732305333 67.9383807506 55.6247159109
77 5 2 87.1000714734 68.1663028746 54.836184451
78 5 2 86.4438097378 68.0890608751 54.0381843137
79 5 2 85.8063051455 67.7147622555 53.3122790517
80 5 2 85.2286330523 67.0785904364 52.7334609625
81 5 2 84.7464152417 66.2395978803 52.3633157406
82 5 2 84.3865730944 65.2753236182 52.2444091068
83 5 2 84.1648737766 64.2747257733 52.3964070558
84 5 2 84.0844931046 63.3300732666 52.8142833537
85 5 2 84.1357260781 62.528535751 53.4687776658
86 5 2 84.2968714646 61.9442383303 54.3090625578
87 5 2 84.5362098089 61.6315052545 55.2673762807
88 5 2 84.8148945769 61.6199084093 56.2651990728
89 5 2 85.090492913 61.9115719178 57.2204100265
90 5 2 85.3208532815 62.4809785325 58.0547721895
91 6 1 92.2319197555 7.61007605299 43.2633309541
92 6 1 91.22022271 2.23637696351 44.0493451048
93 6 2 92.356888955 7.89390416927 43.7229023715
94 6 2 92.3953985964 8.32272122267 44.6652839043
95 6 2 92.1871556869 8.574777027 45.6484180627
96 6 2 91.761841005 8.61438427906 46.5923400394
97 6 2 91.1689208407 8.42521979338 47.4206591127
98 6 2 90.4731382759 8.01181231692 48.0675214567
99 6 2 89.7486120254 7.3991297459 48.4836125413
100 6 2 89.072080714 6.63030336879 48.6406520198
101 6 2 88.5159083563 5.76269656467 48.5339714071
102 6 2 88.1414885697 4.8626762845 48.1829395995
103 6 2 87.9936487108 3.99956388097 47.6291974518
104 6 2 88.0965639812 3.23931665244 46.9328623243
105 6 2 88.4515539226 2.63851601151 46.1670485463
106 6 2 89.0369621444 2.2392102405 45.4112032406
107 6 2 89.8101302455 2.06508190287 44.7438649301
108 6 2 90.7112860136 2.11928924086 44.2355049618
109 7 1 81.7310147396 61.0665868061 18.9270767438
110 7 1 81.0315927515 55.6627592426 19.8367182164
111 7 2 81.2815811698 61.3786285164 19.0166369213
112 7 2 80.3366488911 61.8025012154 19.0463847751
113 7 2 79.3250517192 61.9788858258 18.9085093162
114 7 2 78.3314049075 61.8832541931 18.6310735296
115 7 2 77.4386875822 61.5158717165 18.2548609511
116 7 2 76.7206794164 60.9017731582 17.8296583573
117 7 2 76.2352358103 60.088480792 17.4097178336
118 7 2 76.0190145262 59.1416728746 17.0488118417
119 7 2 76.0841344311 58.1391972485 16.7953320037
120 7 2 76.4170708947 57.1639757191 16.6878783347
121 7 2 76.9798885233 56.2964459537 16.7517409549
122 7 2 77.7136988693 55.6072298031 16.9965949627
123 7 2 78.5440279558 55.1506963087 17.4156185751
124 7 2 79.3876043809 54.9600061098 17.9861149153
125 7 2 80.1599492832 55.0440889397 18.6715807721
126 7 2 80.783076364 55.3868297047 19.4250337702
127 8 1 23.6348024618 88.3221390037 88.3818273561
128 8 1 23.9209881081 86.4524848235 93.572249505
129 8 2 23.485372741 88.8538012696 88.3329644706
130 8 2 23.0302448829 89.783154286 88.3840684319
131 8 2 22.3914428893 90.5614837492 88.6281693759
132 8 2 21.6362909256 91.1258407413 89.0579329253
133 8 2 20.8427181461 91.4327793633 89.6491020526
134 8 2 20.0921556595 91.4623167124 90.3627080433
135 8 2 19.4621143014 91.2197542706 91.1486223898
136 8 2 19.0191197288 90.7351946884 91.9501258715
137 8 2 18.8126487838 90.0607980092 92.7090783595
138 8 2 18.8706198123 89.2660274199 93.3712181343
139 8 2 19.196847981 88.4313178679 93.8911076967
140 8 2 19.7706975352 87.6407446303 94.2362752737
141 8 2 20.548962693 86.974360077 94.3901745347
142 8 2 21.4698057362 86.5008971113 94.3536927447
143 8 2 22.4583933538 86.2715043494 94.1450698927
144 8 2 23.4337174976 86.3150840608 93.7982361653
145 9 1 64.1476425924 56.1547122385 58.4528211155
146 9 1 63.8765053283 50.8323731681 59.9078752264
147 9 2 64.4554813817 56.4727552256 58.7866856482
148 9 2 64.901148788 56.9680616267 59.5800973593
149 9 2 65.1553879374 57.2853500432 60.5330614335
150 9 2 65.2095726565 57.3839074153 61.5630131177
151 9 2 65.0733111986 57.242957433 62.5803704437
152 9 2 64.7735704769 56.8635542418 63.4966993855
153 9 2 64.3522181028 56.2684863596 64.232774384
154 9 2 63.8622062645 55.5001995646 64.7257995458
155 9 2 63.3627452769 54.6169280759 64.9351323199
156 9 2 62.9139067198 53.6873866601 64.8459879587
157 9 2 62.5711480735 52.784507464 64.4707871073
158 9 2 62.3802579182 51.9787924443 63.8480236957
159 9 2 62.3731824269 51.3318873028 63.0387563193
160 9 2 62.5651135572 50.8909626453 62.1210429115
161 9 2 62.9531043453 50.684414507 61.1828259717
162 9 2 63.5163375134 50.7192761298 60.3139168414
163 10 1 45.3810909416 37.8347853937 32.7955750315
164 10 1 40.5591899867 38.4731814351 35.4146803629
165 10 2 45.681800826 38.2976698915 32.7436799919
166 10 2 46.0426552577 39.25201894 32.5635356503
167 10 2 46.1113029295 40.2527910643 32.3043201733
168 10 2 45.8782949438 41.2174025012 32.0065248313
169 10 2 45.3616775101 42.0665654373 31.7141573465
170 10 2 44.6053470809 42.7315148819 31.4707307063
171 10 2 43.6750493075 43.1602764113 31.315297071
172 10 2 42.6523864999 43.3224034992 31.2788882735
173 10 2 41.627379794 43.211752636 31.381687351
174 10 2 40.6902639655 42.8470432931 31.6311889151
175 10 2 39.923262772 42.2701516935 32.0215160376
176 10 2 39.3930944763 41.5422939056 32.5339559171
177 10 2 39.144890656 40.7384461625 33.1386655009
178 10 2 39.1980825802 39.9405109786 33.7973915993
179 10 2 39.5446301014 39.2298519543 34.4669575616
180 10 2 40.1497544935 38.6798777012 35.1031987125
181 11 1 14.2738644005 37.4213806096 65.6213343015
182 11 1 15.2402213388 32.0138128095 66.2064460995
183 11 2 14.5737809496 37.749460389 65.9526880549
184 11 2 15.0574375401 38.2174805337 66.7403957785
185 11 2 15.4170690532 38.4523795178 67.683230681
186 11 2 15.6368744247 38.4237539268 68.6953157492
187 11 2 15.7137973693 38.1252199072 69.6844620028
188 11 2 15.6578049534 37.5749950371 70.5605712727
189 11 2 15.4909791229 36.814237843 71.2438484091
190 11 2 15.2455039934 35.90329631 71.6720743955
191 11 2 14.9607323538 34.9162073244 71.8062774462
192 11 2 14.6795987649 33.933948409 71.6342851802
193 11 2 14.444706189 33.0370568389 71.1718341011
194 11 2 14.2944428434 32.2982888838 70.4611352573
195 11 2 14.2594832175 31.7759882684 69.5670268171
196 11 2 14.3599921748 31.508768298 68.5710642434
197 11 2 14.6037869794 31.5119923588 67.5640867313
198 11 2 14.9856247735 31.7763735867 66.637937458
199 12 1 55.9958120185 83.5729822957 51.4548621361
200 12 1 55.0021601209 81.7067554226 56.5585710057
201 12 2 55.8875477749 84.1112354246 51.3777647252
202 12 2 55.4786441107 85.0620978497 51.3318468295
203 12 2 54.839832061 85.8717701607 51.4308414006
204 12 2 54.0351843235 86.4740309115 51.6823846729
205 12 2 53.1438890754 86.8215636649 52.0802084745
206 12 2 52.2530321828 86.8902697601 52.6047115543
207 12 2 51.4496595573 86.681464841 53.2247461835
208 12 2 50.8128431528 86.2217589386 53.9004571879
209 12 2 50.4064737692 85.5606310379 54.5869146405
210 12 2 50.2734375763 84.7659192008 55.2382091043
211 12 2 50.4317071541 83.917637308 55.8116361547
212 12 2 50.8727033402 83.1006820074 56.2715887739
213 12 2 51.5620771975 82.3970946119 56.5928028349
214 12 2 52.4428408281 81.8785832529 56.7626598598
215 12 2 53.4405616676 81.5999868756 56.7823371596
216 12 2 54.4701468148 81.5942768159 56.6667005263
217 13 1 84.3278224085 68.2482473725 73.4352498509
218 13 1 80.5134028948 65.6300905022 76.4540988761
219 13 2 84.2794435333 68.8004682231 73.4255955972
220 13 2 83.9654401047 69.7850594444 73.351893596
221 13 2 83.3824354524 70.6324165671 73.2272280707
222 13 2 82.5782265782 71.2690673227 73.0810298721
223 13 2 81.6207726576 71.6407447647 72.9446924962
224 13 2 80.5920007423 71.7173335562 72.8487106518
225 13 2 79.5803383287 71.4956149019 72.8199007486
226 13 2 78.672653428 70.9995599328 72.8789566535
227 13 2 77.9463367789 70.2781448021 73.0385634999
228 13 2 77.4622478885 69.4008866389 73.3022414714
229 13 2 77.2591678515 68.4515072487 73.664024947
230 13 2 77.3502645564 67.5203020938 74.109006251
231 13 2 77.7218924681 66.6959101034 74.6146944481
232 13 2 78.3348363818 66.0572344726 75.1530653318
233 13 2 79.1278857838 65.6662508463 75.6931157564
234 13 2 80.0234140269 65.5623584056 76.2036894902
235 14 1 55.7471453918 59.2036862993 6.72728368352
236 14 1 52.183259141 56.2874831809 9.77891688963
237 14 2 55.8359521484 59.7218623901 6.90331915429
238 14 2 55.7669436182 60.7014312252 7.23367158911
239 14 2 55.3990056994 61.614978813 7.55538963941
240 14 2 54.7656322703 62.3769363487 7.85822428794
241 14 2 53.9245109462 62.9155520552 8.13364768908
242 14 2 52.9522650078 63.1794311667 8.37563045912
243 14 2 51.937469394 63.1422204233 8.58119123852
244 14 2 50.9725773329 62.8050101008 8.75066843481
245 14 2 50.1454934772 62.1962346349 8.88768937772
246 14 2 49.5315616297 61.3690808981 8.99883969768
247 14 2 49.1866973578 60.3966403588 9.09306306328
248 14 2 49.1422914383 59.365246989 9.18084598977
249 14 2 49.4023486721 58.3666081536 9.27326202118
250 14 2 49.9431228578 57.4894457295 9.38096240644
251 14 2 50.7152811937 56.811409343 9.51320526646
252 14 2 51.6484008317 56.3919988147 9.67701174117
253 15 1 28.9100154085 13.0120099323 7.92634428764
254 15 1 27.239190817 8.0833223061 9.77955084089
255 15 2 29.4447556312 13.1267437729 8.01728728144
256 15 2 30.3925424684 13.2774060223 8.40773703369
257 15 2 31.2044477472 13.3189539142 9.05002482131
258 15 2 31.8146879872 13.2304915552 9.88262993278
259 15 2 32.1758609375 13.0029731384 10.8266847412
260 15 2 32.2632661646 12.6400274453 11.7931632776
261 15 2 32.0771564316 12.1576270914 12.6909957101
262 15 2 31.6427146589 11.5826326654 13.435369116
263 15 2 31.0077585688 10.9503444581 13.9554579524
264 15 2 30.2383822277 10.3012849353 14.2008796156
265 15 2 29.4129317483 9.67750522363 14.1462866806
266 15 2 28.6148642515 9.11875226218 13.793677251
267 15 2 27.9251409724 8.65884597574 13.1722128377
268 15 2 27.4148478601 8.32259667884 12.3355603644
269 15 2 27.1387162837 8.12354368189 11.3570005716
270 15 2 27.1301344142 8.06272121929 10.3227486725
271 16 1 94.8628177773 31.2531993221 11.1332671204
272 16 1 92.6431262982 27.6780197679 14.7122407099
273 16 2 94.7985784257 31.7874985523 11.2666058859
274 16 2 94.452736376 32.7248867696 11.5407347203
275 16 2 93.8439466914 33.5075082636 11.8412821013
276 16 2 93.0298835344 34.0635750067 12.159937032
277 16 2 92.086931196 34.3419488313 12.4867380608
278 16 2 91.1032218715 34.3168025371 12.8109812411
279 16 2 90.1706026466 33.9899739716 13.1221957672
280 16 2 89.3762638809 33.3907985147 13.4110983605
281 16 2 88.7947920399 32.5734352378 13.6704394155
282 16 2 88.4813713376 31.6119304487 13.8956637817
283 16 2 88.4667538434 30.593468569 14.0853259539
284 16 2 88.7544565128 29.6104255066 14.2412218255
285 16 2 89.3204406263 28.7519488392 14.3682249982
286 16 2 90.1153028548 28.0958322502 14.4738425658
287 16 2 91.0687782406 27.7014248431 14.5675308631
288 16 2 92.0961446607 27.6042216285 14.6598335458
289 17 1 25.215738711 88.7369516457 19.6417427161
290 17 1 23.324242461 85.4736984651 23.6780048082
291 17 2 25.3507617196 89.2506646875 19.8006429547
292 17 2 25.3891825824 90.2078023803 20.1954356669
293 17 2 25.1540183931 91.081711232 20.6998473382
294 17 2 24.674579208 91.7895444131 21.2851338208
295 17 2 24.0024400965 92.2635924477 21.9151794436
296 17 2 23.2067402113 92.4574547512 22.5497888599
297 17 2 22.3678809394 92.3502689192 23.1483507452
298 17 2 21.5701975304 91.9486122806 23.6735394112
299 17 2 20.8942721641 91.2859023911 24.0947169422
300 17 2 20.4095891002 90.4193511124 24.3907257599
301 17 2 20.1682013736 89.4247499042 24.5518170792
302 17 2 20.1999862996 88.3895616348 24.5805394847
303 17 2 20.5099222361 87.4049485748 24.4915066336
304 17 2 21.0776348201 86.5574631997 24.3100652599
305 17 2 21.8592540361 85.9211591629 24.0699848877
306 17 2 22.7914128506 85.5508415032 23.8103798288
307 18 1 11.053706595 96.271322514 22.2754680285
308 18 1 12.7159136418 99.4649560477 26.4654278907
309 18 2 11.2130102451 95.7412970801 22.3082853183
310 18 2 11.7231062118 94.8448789028 22.406705679
311 18 2 12.465999881 94.1393987571 22.5611620533
312 18 2 13.3722594194 93.6857301156 22.7764024396
313 18 2 14.3575626316 93.5217945053 23.0516345358
314 18 2 15.3303827026 93.6591050617 23.3805979559
315 18 2 16.2003306223 94.0817171376 23.7521348472
316 18 2 16.8863939021 94.7476816146 24.1512068991
317 18 2 17.3243206471 95.5928684535 24.5602660445
318 18 2 17.4724759442 96.5368119759 24.9608539196
319 18 2 17.3156367733 97.4900450955 25.3352842942
320 18 2 16.8663795448 98.362254004 25.6682551242
321 18 2 16.1639337937 99.0705100337 25.9482432924
322 18 2 15.2706065118 99.5468283832 26.1685549095
323 18 2 14.2661030326 99.744364751 26.3279354444
324 18 2 13.2402621027 99.641685068 26.4306840711
325 19 1 38.2450749829 92.2355936926 30.8162561305
326 19 1 38.9967599643 91.062536965 36.1619926245
327 19 2 38.0518513504 92.7450595988 30.7138319815
328 19 2 37.529576372 93.63935973 30.6837299297
329 19 2 36.8482666687 94.3958332263 30.8761226238
330 19 2 36.0793736099 94.955962216 31.2866210893
331 19 2 35.3023315537 95.2791251042 31.8909565936
332 19 2 34.5973176174 95.3462991229 32.6471926759
333 19 2 34.0379437481 95.1617942055 33.4995475438
334 19 2 33.6845471897 94.7528601474 34.3834784346
335 19 2 33.5786909047 94.1672028606 35.2315645155
336 19 2 33.7393752216 93.468636107 35.9796521121
337 19 2 34.1613060052 92.7312650446 36.5727021449
338 19 2 34.8153772032 92.0327317404 36.9698067936
339 19 2 35.651323785 91.4471383036 37.1479181363
340 19 2 36.6023032648 91.0382926763 37.1039489053
341 19 2 37.5909882156 90.8538927102 36.8550538838
342 19 2 38.5366144576 90.9211786349 36.4370662932
343 20 1 21.37120913 83.6911960182 36.2155689546
344 20 1 19.3921858571 88.5152535333 34.3907601872
345 20 2 21.7651431413 83.4650573441 35.8976713566
346 20 2 22.3465200681 83.0812576848 35.1307628211
347 20 2 22.6890716164 82.7915965054 34.1968437406
348 20 2 22.7715229331 82.637968008 33.1755455097
349 20 2 22.5963066059 82.6498673793 32.1544638994
350 20 2 22.1893409396 82.8417023835 31.2211749362
351 20 2 21.597667572 83.2114801325 30.4552525814
352 20 2 20.8851637541 83.7409887327 29.9210157773
353 20 2 20.1267201092 84.3974572503 29.6616659475
354 20 2 19.4014145536 85.1365426944 29.6953493027
355 20 2 18.7853045549 85.9063717621 30.0135028618
356 20 2 18.3444946977 86.6522689513 30.581634945
357 20 2 18.1291114272 87.3217400868 31.3424689984
358 20 2 18.1687341577 87.8692570237 32.2211641982
359 20 2 18.4696991883 88.2604074165 33.1321369924
360 20 2 19.0145221657 88.4750313123 33.9868618124
361 21 1 4.02345286375 12.2125308774 0.441995732151
362 21 1 4.68825793342 14.3789556278 5.48011334506
363 21 2 4.35839970641 12.4205426079 0.0522223100186
364 21 2 4.90715831447 13.0158376095 -0.594258828363
365 21 2 5.32569941236 13.8329362943 -1.07449116779
366 21 2 5.59226033676 14.7996639395 -1.3349387533
367 21 2 5.69893101097 15.8302075425 -1.34209842278
368 21 2 5.65237492723 16.8329374466 -1.08555353072
369 21 2 5.47322178723 17.7187591396 -0.578923397553
370 21 2 5.19418715995 18.4092339801 0.141378054971
371 21 2 4.85709054495 18.8437286704 1.01946133544
372 21 2 4.50904363681 18.9849418192 1.98505556053
373 21 2 4.19815622005 18.8223038637 2.95991345823
374 21 2 3.96915109087 18.3729404573 3.86494339752
375 21 2 3.85928769382 17.6801115119 4.62741837914
376 21 2 3.89496602299 16.8092681725 5.18760490723
377 21 2 4.08932033312 15.8420871204 5.50420753778
378 21 2 4.44102198742 14.8690259617 5.55813284802
379 22 1 11.5515016281 74.1915401432 8.19596476613
380 22 1 11.1587264881 78.032259311 4.2446871215
381 22 2 12.0242475401 74.2017019786 8.485429147
382 22 2 13.0069347819 74.2220341231 8.81309116778
383 22 2 14.0420355404 74.2583938998 8.83944259259
384 22 2 15.0384128525 74.3263457588 8.56364410094
385 22 2 15.9084592938 74.4385746162 8.01239652968
386 22 2 16.576082161 74.6037296579 7.23750716302
387 22 2 16.9836391186 74.8256359899 6.3111676371
388 22 2 17.0971921439 75.1029459894 5.31937386529
389 22 2 16.9096008864 75.4292621377 4.35408774052
390 22 2 16.4411734924 75.7937201364 3.50485505453
391 22 2 15.7378155714 76.1819791594 2.85064363833
392 22 2 14.8668460223 76.5775289811 2.4526456554
393 22 2 13.9108610963 76.9631948388 2.3487000996
394 22 2 12.9602059686 77.3227028667 2.54984387198
395 22 2 12.1047400177 77.6421634155 3.03930579676
396 22 2 11.4256463831 77.9113370564 3.77403526918
397 23 1 10.8827185595 51.3896327767 25.0675758569
398 23 1 14.2628441325 55.59643208 26.2489233052
399 23 2 11.1343474894 50.9008262375 24.9959334326
400 23 2 11.742333781 50.1099753529 24.7160092309
401 23 2 12.4915704672 49.5420245846 24.2806630193
402 23 2 13.3274868525 49.2494132 23.7430084967
403 23 2 14.1876116183 49.2594840178 23.1654844911
404 23 2 15.0072669171 49.5719911827 22.6141638274
405 23 2 15.725463585 50.1591225749 22.1527309658
406 23 2 16.290460141 50.9680348103 21.8366773337
407 23 2 16.6644788851 51.9256697734 21.7082434301
408 23 2 16.8271492342 52.94541367 21.7925687175
409 23 2 16.7773644467 53.9349916423 22.0954002265
410 23 2 16.5333824988 54.804878376 22.6025687297
411 23 2 16.1311619186 55.4764580933 23.2812802291
412 23 2 15.621084263 55.8891901709 24.0831050407
413 23 2 15.0633619727 56.006127256 24.9483920314
414 23 2 14.5225501696 55.8172829188 25.8117056599
415 24 1 9.5233783614 72.7161094658 58.9771273528
416 24 1 9.62128650433 74.0956424039 64.3255190671
417 24 2 10.0111680418 72.5552139069 58.7684279641
418 24 2 11.000176063 72.4536463205 58.4768852217
419 24 2 12.0163669466 72.6097292787 58.3486502438
420 24 2 12.9744914783 72.9991896445 58.410034414
421 24 2 13.7945930368 73.5764825542 58.6700658376
422 24 2 14.4092954258 74.2789427099 59.1196664535
423 24 2 14.7699440343 75.0324961534 59.7324794757
424 24 2 14.8510405745 75.7584119101 60.4672717432
425 24 2 14.6525671822 76.3804781068 61.2716920132
426 24 2 14.1999880455 76.8319484799 62.0870426362
427 24 2 13.541928412 77.0616261192 62.8536296905
428 24 2 12.7457425271 77.0385299295 63.5162039233
429 24 2 11.8913744752 76.7547184744 64.0289965724
430 24 2 11.0640714894 76.2260138172 64.3598910667
431 24 2 10.3466138946 75.490559382 64.4933503658
432 24 2 9.8117699017 74.6053432825 64.4318331194
433 25 1 75.600188049 75.7503211074 60.4702825877
434 25 1 71.870330282 79.3041414361 58.4761629396
435 25 2 75.8730688144 75.4580960059 60.0861964437
436 25 2 76.1667571246 74.8671871268 59.287432471
437 25 2 76.1587280993 74.2766816532 58.4361458966
438 25 2 75.8521432793 73.7534877453 57.5960721534
439 25 2 75.2773767683 73.3583782939 56.8299246543
440 25 2 74.4892467141 73.1404516337 56.193678633
441 25 2 73.5620187815 73.1326563618 55.7314691503
442 25 2 72.5826370348 73.3487881609 55.4715683021
443 25 2 71.6427992193 73.7822323596 55.4238082927
444 25 2 70.8305987567 74.406566842 55.578685256
445 25 2 70.2224952649 75.1779703532 55.9082255074
446 25 2 69.8763454686 76.0392166894 56.3685352706
447 25 2 69.8261297132 76.9248907133 56.9038014777
448 25 2 70.0788547473 77.7673507694 57.4513789811
449 25 2 70.6139150761 78.5028940395 57.9475004918
450 25 2 71.3849710976 79.0775628851 58.3330887968
451 26 1 21.5314417781 74.3307820078 92.5690025613
452 26 1 22.0588730864 71.3161761984 97.1681284664
453 26 2 21.9938566065 74.588554023 92.4043583916
454 26 2 22.8644963838 75.1438238376 92.3200267695
455 26 2 23.6849993613 75.7387379151 92.5352060332
456 26 2 24.3940049462 76.3059193375 93.0342714857
457 26 2 24.9403152349 76.7805189439 93.775722963
458 26 2 25.2875615654 77.1061261589 94.6959674624
459 26 2 25.4175194234 77.2399106649 95.7151154754
460 26 2 25.3317695579 77.1565262717 96.7442627023
461 26 2 25.0515539006 76.8504211539 97.6935934421
462 26 2 24.6158394203 76.3363438849 98.480567053
463 26 2 24.0777663878 75.6479991436 99.0374413117
464 26 2 23.4998047825 74.8349756234 99.3174469358
465 26 2 22.9480603205 73.9582261551 99.299050479
466 26 2 22.4862490954 73.0845120193 98.987917047
467 26 2 22.1698900265 72.2803178343 98.4163939384
468 26 2 22.0412444581 71.6057916606 97.6405622751
469 27 1 13.3155998822 89.5768670911 5.74952800269
470 27 1 12.7690049419 85.2432135738 9.1316386196
471 27 2 13.1684850589 90.0643489241 5.96884576128
472 27 2 12.6975601122 90.8593314897 6.43754868025
473 27 2 12.0158766435 91.4387348176 6.96009001187
474 27 2 11.1919636727 91.7479989554 7.50687435774
475 27 2 10.307314059 91.757186416 8.04609663351
476 27 2 9.44895664396 91.4637108991 8.54664101732
477 27 2 8.7015238056 90.8925730259 8.98091707377
478 27 2 8.13953744327 90.0940815995 9.32737454837
479 27 2 7.82061650568 89.1392680915 9.57246761568
480 27 2 7.78022517773 88.1134123134 9.71188954504
481 27 2 8.02844041482 87.1082693899 9.75096524757
482 27 2 8.54903345537 86.2137065242 9.70416592478
483 27 2 9.30094902898 85.5095118429 9.59379005722
484 27 2 10.2220474346 85.0581219213 9.44793095755
485 27 2 11.2347684084 84.8989308567 9.29791614021
486 27 2 12.2532005341 85.0446996014 9.1754519022
487 28 1 12.3742760307 46.5954730605 12.4256428694
488 28 1 9.85208686829 51.4572338613 13.146638574
489 28 2 12.3968795731 46.4196851573 11.900315085
490 28 2 12.2085053486 46.1375105322 10.9213653194
491 28 2 11.7391040195 45.9518565682 10.0165752835
492 28 2 11.0345991737 45.8960629767 9.25894080131
493 28 2 10.162343456 45.9916330434 8.7080448616
494 28 2 9.20497955481 46.246273661 8.40462678737
495 28 2 8.25290754216 46.6531928668 8.36686895571
496 28 2 7.39604514846 47.1917189117 8.58873952262
497 28 2 6.71563200187 47.8291844348 9.04054220952
498 28 2 6.27682485326 48.5239040066 9.67162303964
499 28 2 6.12275871256 49.2289736437 10.4149873126
500 28 2 6.27061520785 49.8965459821 11.1934059924
501 28 2 6.71005652594 50.4821914363 11.9264549274
502 28 2 7.40416767636 50.9489478374 12.537845297
503 28 2 8.29282119409 51.2706894358 12.9623771338
504 28 2 9.29815759732 51.4345081937 13.151882126
505 29 1 94.3336828628 67.6168247637 83.7098416337
506 29 1 93.6815518047 63.0675828485 86.7753129093
507 29 2 94.1952217339 68.0905379593 83.9624399555
508 29 2 93.7378552827 68.8599655081 84.4842130744
509 29 2 93.0651427604 69.4149132603 85.0436242522
510 29 2 92.2446607934 69.7016526512 85.6075744936
511 29 2 91.3574547982 69.6909015912 86.14255108
512 29 2 90.4906519081 69.3804934504 86.6176821639
513 29 2 89.7295195677 68.7955745406 87.0075506554
514 29 2 89.1496936337 67.9863120969 87.2945109221
515 29 2 88.8102843683 67.0233216676 87.4702971411
516 29 2 88.7484886969 65.9912306961 87.5367767068
517 29 2 88.976199808 64.9809649555 87.5057800232
518 29 2 89.4789231204 64.0814609074 87.3980221935
519 29 2 90.217097426 63.3715593813 87.2412148944
520 29 2 91.1297007878 62.9128194436 87.0675405306
521 29 2 92.1398125267 62.7439074529 86.9107188948
522 29 2 93.1616243356 62.8770727255 86.8029336982
523 30 1 93.14461062 26.8161355485 10.3820204522
524 30 1 87.662494644 26.4222541137 10.9381255698
525 30 2 93.3375059782 27.3332486891 10.329418469
526 30 2 93.5323950864 28.315824293 10.0648179598
527 30 2 93.4875486093 29.2486794123 9.61624229064
528 30 2 93.1957246454 30.0564296196 9.03673526924
529 30 2 92.6721926312 30.6750934657 8.39127474625
530 30 2 91.9533415724 31.0579242179 7.75085005772
531 30 2 91.0933632839 31.1796706996 7.18599153684
532 30 2 90.1593129501 31.0388788677 6.76034186257
533 30 2 89.2249972245 30.6580243446 6.5248551996
534 30 2 88.3642469504 30.0814638256 6.51315286238
535 30 2 87.6441876768 29.3713920841 6.7384588222
536 30 2 87.1191213438 28.6021730849 7.19239437755
537 30 2 86.8255768065 27.8535619071 7.84574185035
538 30 2 86.7789803268 27.2034352819 8.65110769923
539 30 2 86.9722495115 26.720693337 9.54724231414
540 30 2 87.3764388529 26.4589795336 10.4646227546
541 31 1 58.7320214345 55.666455268 90.6130922564
542 31 1 62.9876995153 56.9779169333 87.3439542302
543 31 2 58.6864811759 55.9742142558 91.0719953816
544 31 2 58.8287002372 56.4950423199 91.9562814651
545 31 2 59.2582174694 56.918388739 92.7987437893
546 31 2 59.9408457426 57.2230653225 93.5161285057
547 31 2 60.819327532 57.3987003179 94.0365822551
548 31 2 61.8185537882 57.4466837687 94.3062014099
549 31 2 62.8524099263 57.3800408155 94.2939452451
550 31 2 63.8316249405 57.2222444891 93.994465218
551 31 2 64.671908217 57.0050762069 93.428592473
552 31 2 65.301632399 56.7657289812 92.641439139
553 31 2 65.6683620281 56.5434173758 91.6982864788
554 31 2 65.7436328964 56.375803203 90.6786346771
555 31 2 65.5255464834 56.2955627508 89.6689566109
556 31 2 65.0389430004 56.3274084257 88.7548160776
557 31 2 64.333137272 56.4858362833 88.0130688842
558 31 2 63.4774238218 56.7738047518 87.5048576453
559 32 1 42.0923878006 75.149544455 38.3092966056
560 32 1 44.419750597 70.2575594823 37.2276975574
561 32 2 41.8737583591 75.4065734581 37.8693888347
562 32 2 41.6751513152 75.8427655799 36.9508347066
563 32 2 41.7581604032 76.1743493264 35.9727694115
564 32 2 42.1076842919 76.3563756782 35.014568248
565 32 2 42.684329538 76.3575273728 34.1537959524
566 32 2 43.4280011939 76.1629733891 33.45913688
567 32 2 44.2633803009 75.7757207555 32.9841346099
568 32 2 45.1067890113 75.2163404676 32.7623115905
569 32 2 45.8738176005 74.5210924964 32.8041136585
570 32 2 46.487018188 73.738620789 33.0959579283
571 32 2 46.8829639042 72.9255195031 33.601470836
572 32 2 47.0180300805 72.1411746005 34.2648034924
573 32 2 46.8723705212 71.4423509757 35.01572216
574 32 2 46.4517264309 70.878018487 35.7760098705
575 32 2 45.7869031193 70.4848884855 36.4665956924
576 32 2 44.9309621794 70.2840676729 37.014761835
577 33 1 21.967578421 48.8120376484 53.2287860733
578 33 1 27.1454000144 46.889655877 53.1165232874
579 33 2 21.6949249753 48.7212287466 53.7029120376
580 33 2 21.2587876846 48.3302481504 54.5575280029
581 33 2 20.9644176124 47.6862206528 55.31385125
582 33 2 20.8524964494 46.8505421046 55.9159849798
583 33 2 20.9470761561 45.9020768374 56.3220863554
584 33 2 21.2533866902 44.929969391 56.5081803652
585 33 2 21.7573593109 44.0255192265 56.4703450809
586 33 2 22.4269089061 43.2738590246 56.225069131
587 33 2 23.2148584653 42.7461950694 55.8077488059
588 33 2 24.0632391375 42.4933169856 55.2694617813
589 33 2 24.9085739375 42.5409684003 54.672311524
590 33 2 25.6876635031 42.8875004801 54.0837667273
591 33 2 26.3433465481 43.5040222177 53.5705117197
592 33 2 26.8297099609 44.3370337701 53.1923683667
593 33 2 27.1162736618 45.3133028264 52.9968434675
594 33 2 27.1907687808 46.3465395371 53.0147986374