LAMMPS input file for bananas

648 atoms

2 atom types

0 67.4746132241 xlo xhi
0 67.4746132241 ylo yhi
0 67.4746132241 zlo zhi

Masses

 1 1
 2 1

Atoms

1 1 1 14.6123892022 41.9859539175 38.0947258631
2 1 1 13.7756822757 41.4620976529 32.6760423458
3 1 2 14.7688223318 41.5219530645 38.3547501619
4 1 2 14.876112052 40.5621103875 38.7287678385
5 1 2 14.7450371808 39.5521484684 38.9171678683
6 1 2 14.3992109819 38.5762591256 38.8899189832
7 1 2 13.8818198302 37.7155286956 38.6366448351
8 1 2 13.2516870698 37.0405475697 38.1675697291
9 1 2 12.5779116694 36.6049763636 37.5125867481
10 1 2 11.9335703254 36.4406551201 36.718533203
11 1 2 11.3890570214 36.5547013079 35.8449217334
12 1 2 11.0056670998 36.9288611127 34.958516138
13 1 2 10.8300106112 37.5211731473 34.1272463125
14 1 2 10.8897641282 38.2697929445 33.4140169051
15 1 2 11.1911482154 39.0986296562 32.8709739894
16 1 2 11.7183604674 39.9242812126 32.5347523067
17 1 2 12.4350157899 40.6636358489 32.4231362614
18 1 2 13.2874626518 41.2414471728 32.5334389936
19 2 1 33.0460705574 26.2739679363 20.8526919955
20 2 1 28.4881312308 24.277691498 23.2141966862
21 2 2 33.1244196652 26.8191976862 20.9156736495
22 2 2 33.0483390595 27.8512453095 20.9579550376
23 2 2 32.6851713818 28.8202145791 20.9142965503
24 2 2 32.0620658825 29.6404801342 20.806582916
25 2 2 31.229863362 30.2399699378 20.6625370508
26 2 2 30.2584623806 30.5667341492 20.5131933044
27 2 2 29.230448484 30.5936799954 20.3900688922
28 2 2 28.233567097 30.321041092 20.3222913169
29 2 2 27.3527261296 29.7763561505 20.3339435966
30 2 2 26.662257203 29.0119590134 20.4418692625
31 2 2 26.2191408323 28.1002087837 20.654137187
32 2 2 26.0578130429 27.1268947884 20.9693061607
33 2 2 26.187026763 26.1834174697 21.3765562493
34 2 2 26.5890540541 25.3584578612 21.8566749562
35 2 2 27.2213018913 24.7298949199 22.3838083096
36 2 2 28.0201942253 24.357707393 22.9278172752
37 3 1 61.157977048 47.9911495816 3.19447855889
38 3 1 60.5072159201 43.0353431444 5.50816121611
39 3 2 60.8033908529 48.3804139686 3.36803724885
40 3 2 59.9793054984 48.943434807 3.64478466995
41 3 2 59.0107432727 49.2451557331 3.85347096269
42 3 2 57.9845992393 49.2540051019 3.99364365053
43 3 2 56.9930166486 48.965104503 4.07109480228
44 3 2 56.1249887127 48.4007133939 4.09733312476
45 3 2 55.4582474837 47.6082003038 4.08853502302
46 3 2 55.0521791107 46.6557255159 4.064070232
47 3 2 54.942411199 45.6260287258 4.04473639793
48 3 2 55.1375655984 44.6088878851 4.0508635155
49 3 2 55.6184725806 43.6929365565 4.10046098824
50 3 2 56.3399180284 42.9575855727 4.2075761948
51 3 2 57.2347643929 42.465785283 4.38101416679
52 3 2 58.2200698203 42.2582880609 4.62353507044
53 3 2 59.2046477334 42.3499340044 4.93160263639
54 3 2 60.097377863 42.7282983628 5.29570646643
55 4 1 2.44082661081 20.3107228596 41.2401629452
56 4 1 2.060712405 25.0135305198 38.3983768468
57 4 2 2.66992399565 20.3572696862 41.7428840735
58 4 2 3.26656337201 20.5591842886 42.5650459912
59 4 2 4.02778245408 20.9078515817 43.1746974481
60 4 2 4.87705173613 21.3881281246 43.5222235622
61 4 2 5.72981654042 21.9728751957 43.5819003793
62 4 2 6.50120359629 22.625432301 43.3542394351
63 4 2 7.11375665693 23.3029585266 42.8659411323
64 4 2 7.50449610521 23.9603371949 42.1674611818
65 4 2 7.63065911399 24.5542879395 41.3284119108
66 4 2 7.47359718462 25.0473114148 40.4312175761
67 4 2 7.04047582975 25.4111071036 39.5636019585
68 4 2 6.36362148596 25.6291527156 38.8105929416
69 4 2 5.49757518073 25.6982100804 38.2467728031
70 4 2 4.51412149169 25.6286202853 37.9294805513
71 4 2 3.49574587456 25.4433611554 37.8935858682
72 4 2 2.52811667936 25.1759529825 38.1483109764
73 5 1 16.1973384369 42.7094037661 5.72313983992
74 5 1 15.4546499292 42.9753981602 0.272057773953
75 5 2 15.7910315637 42.9325428606 6.02728523437
76 5 2 15.0620691497 43.5333578377 6.45194207631
77 5 2 14.4175214825 44.3199466457 6.6482444527
78 5 2 13.9006733967 45.2154833676 6.58840878678
79 5 2 13.5431707851 46.1332122309 6.26799672827
80 5 2 13.3621362936 46.9843548017 5.70631967852
81 5 2 13.3586087083 47.6862015298 4.94467868868
82 5 2 13.517448278 48.1696501579 4.04260015209
83 5 2 13.8087165988 48.3855039178 3.07241038161
84 5 2 14.1904052936 48.3089554791 2.11264356208
85 5 2 14.6122647885 47.941847967 1.24088389784
86 5 2 15.0203842164 47.3125069741 0.526694344404
87 5 2 15.3621050232 46.4731588768 0.0252764220044
88 5 2 15.5908204339 45.4951707595 -0.227561024512
89 5 2 15.6702233405 44.4625457936 -0.218665556379
90 5 2 15.5776154461 43.4642669248 0.041260104465
91 6 1 24.8464235481 39.5256240347 12.4346656254
92 6 1 24.457720877 42.3434241786 17.1511842047
93 6 2 24.8193083532 39.8328363191 11.9739421398
94 6 2 24.5764799862 40.4954981155 11.2159104789
95 6 2 24.1124839413 41.2330213522 10.6560306555
96 6 2 23.4794530727 41.9936787427 10.3504647464
97 6 2 22.7449266002 42.7236344811 10.332195859
98 6 2 21.9856943719 43.3718510066 10.6080219468
99 6 2 21.2807979961 43.8947407271 11.1579362226
100 6 2 20.7043267409 44.2601387297 11.9369506401
101 6 2 20.3186648049 44.4502343918 12.8791962458
102 6 2 20.1688054255 44.463194697 13.9039266825
103 6 2 20.2782500539 44.3133313026 14.9228776663
104 6 2 20.6468663587 44.0297961294 15.8483116707
105 6 2 21.2509002872 43.6539243646 16.6010146007
106 6 2 22.0451410841 43.2354670426 17.1175156145
107 6 2 22.9670419425 42.8280565795 17.3558720555
108 6 2 23.9424207158 42.4843185457 17.2994922381
109 7 1 59.0013712762 22.3328265744 65.0361023386
110 7 1 57.0204189573 26.2771698112 68.3307372603
111 7 2 59.2122763438 22.5114292366 64.5554768158
112 7 2 59.4020480817 22.9607920456 63.6418258844
113 7 2 59.3193271787 23.5375791898 62.7855711831
114 7 2 58.9803150123 24.2053294811 62.0701142867
115 7 2 58.4245721513 24.9192910642 61.5660240155
116 7 2 57.7114126816 25.6305002415 61.3246045712
117 7 2 56.9144981336 26.2902441781 61.3732195104
118 7 2 56.1151237389 26.8545007432 61.712797744
119 7 2 55.394808927 27.2879508252 62.3177488738
120 7 2 54.827867389 27.5671974263 63.1382955813
121 7 2 54.4746338931 27.6828981392 64.1050104894
122 7 2 54.3759651849 27.6406166427 65.1351439915
123 7 2 54.549516175 27.460315611 66.1401663111
124 7 2 54.9881308148 27.1745372525 67.0338363838
125 7 2 55.6604943212 26.825437311 67.7400621389
126 7 2 56.5139873047 26.4609428583 68.1998357703
127 8 1 11.8962314144 60.0732777885 31.1996033477
128 8 1 11.0713018534 56.3622286008 35.1851070891
129 8 2 12.0361662398 60.5801960212 31.3751963476
130 8 2 12.1103005696 61.5011571651 31.8432059027
131 8 2 11.9455431001 62.3110781952 32.467370282
132 8 2 11.5683829487 62.9320892642 33.2054717273
133 8 2 11.0246682808 63.3035383725 34.0049078979
134 8 2 10.3754275642 63.3875193823 34.8074862137
135 8 2 9.69130724238 63.1723269019 35.5547277093
136 8 2 9.04613279584 62.6735231523 36.1931969913
137 8 2 8.51018005551 61.932519577 36.6793725076
138 8 2 8.14377004266 61.0128024732 36.9836132388
139 8 2 7.99177112131 59.9941466509 37.092860274
140 8 2 8.07950955456 58.965344506 37.0118270404
141 8 2 8.41046118927 58.016113202 36.7625697074
142 8 2 8.9659346565 57.2289175659 36.3824769176
143 8 2 9.70677496162 56.6714539846 35.9208620685
144 8 2 10.5769321936 56.390480343 35.4344687344
145 9 1 56.8767756339 38.9808984023 68.0070185083
146 9 1 59.3097460574 36.6618795233 63.6435976847
147 9 2 56.6129258528 38.6287250372 68.3442691059
148 9 2 56.0218024085 37.8950617963 68.7743965215
149 9 2 55.360797054 37.1094841069 68.9109171654
150 9 2 54.7019181163 36.3285958165 68.7412401353
151 9 2 54.1169801144 35.6085733662 68.2806823473
152 9 2 53.6710583576 35.000045693 67.5710725047
153 9 2 53.4165577778 34.5434797494 66.6769386975
154 9 2 53.3884365789 34.2654922181 65.6796271104
155 9 2 53.6010200364 34.1764235839 64.6698878752
156 9 2 54.0466948466 34.2693956693 63.7396038186
157 9 2 54.696603027 34.5209385335 62.9734159725
158 9 2 55.503272124 34.8931295962 62.4410091243
159 9 2 56.4049420008 35.3370500209 62.1907605263
160 9 2 57.3311938511 35.7972433319 62.2453306408
161 9 2 58.2093683903 36.216769891 62.5995977942
162 9 2 58.9711882509 36.5423965561 63.2211249828
163 10 1 53.3367403516 34.22004454 25.770807744
164 10 1 58.5033701901 35.5055870725 27.1814641288
165 10 2 53.1571851444 34.4501608571 25.2994404139
166 10 2 52.9023446752 35.0783716064 24.5164296472
167 10 2 52.7855177523 35.9123147463 23.913446579
168 10 2 52.8329546308 36.8750602261 23.5345413733
169 10 2 53.0559340467 37.8779385447 23.4033410335
170 10 2 53.449735237 38.8286223682 23.5208959624
171 10 2 53.9940682053 39.6395415329 23.8655842259
172 10 2 54.6549230158 40.2358644655 24.3950822436
173 10 2 55.3876695653 40.562318568 25.0502222928
174 10 2 56.1411253119 40.5882279361 25.7603852415
175 10 2 56.8622202121 40.3103092573 26.4499369973
176 10 2 57.5008336918 39.7529710626 27.0451220369
177 10 2 58.0143627928 38.9660890561 27.4807857162
178 10 2 58.3716051406 38.0204602867 27.7063126692
179 10 2 58.5556028264 37.0013504822 27.6902400519
180 10 2 58.565188005 36.000722663 27.4231251649
181 11 1 10.4071086993 8.35248931384 47.2435616691
182 11 1 10.8111313649 12.3654683196 43.4926417669
183 11 2 10.2750080326 7.85350385364 47.0412162318
184 11 2 9.85574184086 7.0401476441 46.5560710907
185 11 2 9.2550016909 6.44575289778 45.957318697
186 11 2 8.53741797687 6.12422446049 45.2832331324
187 11 2 7.7782705827 6.10459728472 44.5789545803
188 11 2 7.0566276368 6.38839009289 43.892375108
189 11 2 6.44813899425 6.94946695613 43.2697736331
190 11 2 6.01814127119 7.73641940505 42.7515979174
191 11 2 5.81570286018 8.67725195925 42.3687780305
192 11 2 5.86915168269 9.68594402176 42.1399072864
193 11 2 6.18349329322 10.6702900667 42.0695475903
194 11 2 6.73995465735 11.5403035407 42.1478136518
195 11 2 7.49769518512 12.2164185204 42.3512739621
196 11 2 8.39752907082 12.6367416008 42.6450864147
197 11 2 9.36731967333 12.7626930549 42.9861739249
198 11 2 10.3285542765 12.582523111 43.3271506105
199 12 1 8.43653760976 25.891542936 38.9383967934
200 12 1 12.8595274114 22.6095505288 38.9865837246
201 12 2 8.03691067351 25.7429093901 38.5840140448
202 12 2 7.46777327537 25.4555880265 37.7677865476
203 12 2 7.1744580013 25.1627980666 36.8186087664
204 12 2 7.18406707899 24.872232375 35.824537584
205 12 2 7.49609325834 24.5913810894 34.8777216094
206 12 2 8.08246604384 24.3268489461 34.066002463
207 12 2 8.8901101278 24.0837533033 33.4649086157
208 12 2 9.84578284069 23.8652577293 33.1307714866
209 12 2 10.8627497184 23.6722836649 33.0955912199
210 12 2 11.8486897539 23.5034264399 33.3641200918
211 12 2 12.7141098241 23.3550832998 33.9134293725
212 12 2 13.3805013746 23.221781772 34.6949991233
213 12 2 13.7874959357 23.0966784438 35.6391404557
214 12 2 13.8983672951 22.972182693 36.6613471964
215 12 2 13.70337884 22.8406485208 37.6699980453
216 12 2 13.2206709826 22.6950714324 38.5747072289
217 13 1 51.2565758582 33.1331315837 54.3967944341
218 13 1 46.558138736 35.745038424 55.5964886423
219 13 2 51.435615561 32.7803081168 54.7851771548
220 13 2 51.736435254 32.3043565724 55.6544733705
221 13 2 51.9557234927 32.0974050939 56.6453225139
222 13 2 52.0571319487 32.1706284947 57.673453308
223 13 2 52.0150562275 32.5096655692 58.6511965089
224 13 2 51.8169695336 33.0759280175 59.4954753564
225 13 2 51.4645644023 33.8101175051 60.1353774512
226 13 2 50.9735984361 34.6376302988 60.5186179336
227 13 2 50.3724581078 35.4753568863 60.6163048902
228 13 2 49.699571528 36.2392568377 60.4255726538
229 13 2 48.999905986 36.852018515 59.9698429891
230 13 2 48.3208694902 37.2501054976 59.2966903596
231 13 2 47.7079898525 37.3895474915 58.4735058413
232 13 2 47.2007651412 37.2499479201 57.5813548882
233 13 2 46.829063702 36.8363429324 56.7075887723
234 13 2 46.6104018639 36.1787423925 55.9378831133
235 14 1 60.1664803036 7.61408736936 7.28350172421
236 14 1 62.9271917495 4.37414402341 3.78809411502
237 14 2 60.1210785014 8.14412144349 7.12735016881
238 14 2 60.268722199 9.11689841514 6.80392386644
239 14 2 60.7034280719 9.98760184993 6.44951646842
240 14 2 61.3829255587 10.6751241883 6.07763682284
241 14 2 62.2426330205 11.1150535718 5.70338625332
242 14 2 63.2015439149 11.2655445421 5.34208217696
243 14 2 64.1696099866 11.111131968 5.00786202679
244 14 2 65.0559485489 10.6641405859 4.71239472163
245 14 2 65.777125817 9.96356168449 4.46381712419
246 14 2 66.2647613259 9.07149931632 4.26599242178
247 14 2 66.4717603405 8.06750993906 4.11815802332
248 14 2 66.3766062185 7.0413513899 4.01499506425
249 14 2 65.985321504 6.08480207403 3.94711318459
250 14 2 65.3309190145 5.28329599229 3.90190639585
251 14 2 64.4703929487 4.70813601772 3.86470203047
252 14 2 63.479524256 4.40999512753 3.82009805487
253 15 1 27.8828081034 60.1244800274 39.8220576053
254 15 1 30.0146130152 65.0316061248 38.513563735
255 15 2 27.7559236193 60.0581544126 40.3576712647
256 15 2 27.7379552773 60.0129956527 41.3922417535
257 15 2 27.9994595452 60.0879938921 42.391586065
258 15 2 28.5097654288 60.2935298392 43.2691059513
259 15 2 29.2155253728 60.6280865847 43.9493066251
260 15 2 30.045577524 61.0783878585 44.3746775928
261 15 2 30.9174316468 61.6206080702 44.5109343413
262 15 2 31.7447875427 62.2225438483 44.3501431365
263 15 2 32.4454007213 62.8465491571 43.9114441283
264 15 2 32.9485784218 63.4529664743 43.2393068579
265 15 2 33.2016227737 64.0037413024 42.3994771634
266 15 2 33.1746338465 64.4658905754 41.4729848978
267 15 2 32.8632348229 64.8145088391 40.548758613
268 15 2 32.2889709159 65.0350382122 39.7155203327
269 15 2 31.4973456706 65.1245952377 39.0536991474
270 15 2 30.5536736277 65.0922336901 38.628100655
271 16 1 17.0122602454 59.8579724302 25.9075504199
272 16 1 13.4417206319 62.8500855768 28.8461114136
273 16 2 17.5362170076 59.8723707071 26.0882234743
274 16 2 18.4812985545 60.1320782796 26.4229937203
275 16 2 19.3047637505 60.6724691339 26.7432765119
276 16 2 19.9291056359 61.4442027174 27.0387807543
277 16 2 20.2949659755 62.3768531741 27.3014737473
278 16 2 20.3665453548 63.3853281783 27.5263133113
279 16 2 20.134866051 64.3776245165 27.7117073472
280 16 2 19.6185902915 65.2632135497 27.8596589452
281 16 2 18.8623193191 65.9612922784 27.9755838173
282 16 2 17.9325282949 66.4081479815 28.0678166916
283 16 2 16.9115075432 66.5629651943 28.1468516598
284 16 2 15.8898623522 66.4115457583 28.2243857118
285 16 2 14.9582549237 65.9676028861 28.3122526362
286 16 2 14.1991411346 65.2715112956 28.4213444507
287 16 2 13.6792552494 64.3866273318 28.56061867
288 16 2 13.4435275491 63.3935144703 28.7362818895
289 17 1 26.4911126075 45.880272855 17.5620904274
290 17 1 22.1611349612 43.1695863929 15.502938317
291 17 2 26.4416326193 46.0350518923 18.0921620565
292 17 2 26.1427328053 46.4106111593 19.0099378512
293 17 2 25.5927709866 46.8553158765 19.7665605997
294 17 2 24.8328859269 47.3136221899 20.3006282829
295 17 2 23.9233494536 47.728746553 20.5710232497
296 17 2 22.9380730949 48.0478411583 20.5606598095
297 17 2 21.95787155 48.2268106523 20.2780414757
298 17 2 21.0630969836 48.2343311244 19.7564859284
299 17 2 20.3263154771 48.0547050673 19.0510883366
300 17 2 19.8056931278 47.6892920964 18.2336998114
301 17 2 19.5396946076 47.1563850307 17.3863786694
302 17 2 19.5435773723 46.4895426275 16.5939113802
303 17 2 19.8080010488 45.7345309318 15.9360848607
304 17 2 20.2998787462 44.9451520153 15.4804144447
305 17 2 20.9653926992 44.1783402861 15.2759903233
306 17 2 21.734899388 43.4889733078 15.3490033103
307 18 1 16.9683588586 6.9355342467 32.0480103341
308 18 1 19.6919136736 11.7087995173 31.6808281534
309 18 2 16.4163086934 6.98069930404 32.0721243192
310 18 2 15.4320206951 7.22080194126 32.2871269496
311 18 2 14.5849127784 7.65545120466 32.6947866929
312 18 2 13.9489782174 8.2593464826 33.2457821544
313 18 2 13.5789632828 8.99176154956 33.8777278712
314 18 2 13.5053774945 9.80025648243 34.5208603197
315 18 2 13.731712888 10.6254571999 35.1043963826
316 18 2 14.2341257394 11.406467003 35.5629847441
317 18 2 14.9636097573 12.0864168915 35.8426622153
318 18 2 15.8504626703 12.6176487836 35.9057721078
319 18 2 16.8106391113 12.9660592232 35.7343963835
320 18 2 17.753410776 13.1142076763 35.3319887605
321 18 2 18.5896356866 13.0629061158 34.7230599305
322 18 2 19.2398828709 12.8311450158 33.9509435773
323 18 2 19.6416719519 12.4543625004 33.0738468086
324 18 2 19.7551678049 11.9812144013 32.1595449773
325 19 1 56.2947540496 27.5415039714 50.4878223669
326 19 1 52.2062064006 27.5408471837 54.1784066862
327 19 2 56.7045873194 27.1824846629 50.590401988
328 19 2 57.4656454755 26.6090554447 50.9961946517
329 19 2 58.1515869804 26.1949730984 51.6524859997
330 19 2 58.6902515005 25.9629506388 52.5061278357
331 19 2 59.0229019895 25.9191075703 53.4859848194
332 19 2 59.1095781679 26.0524121361 54.5094179652
333 19 2 58.932738628 26.3356867868 55.489816619
334 19 2 58.4988596129 26.7280852281 56.3444924258
335 19 2 57.8378447521 27.1788152806 57.0022158058
336 19 2 57.0002995496 27.6317682381 57.4097080428
337 19 2 56.0529190401 28.0306327919 57.5364972737
338 19 2 55.0724089935 28.3240274208 57.3776957898
339 19 2 54.1384947097 28.4701834637 56.9544455179
340 19 2 53.3266546042 28.4407520475 56.3119910791
341 19 2 52.7012408685 28.2233878918 55.5155560509
342 19 2 52.3096142082 27.8228744972 54.6443982863
343 20 1 36.0560084829 20.1307809548 37.9988635147
344 20 1 33.0162838494 18.3751319878 33.7545254291
345 20 2 36.008621134 19.8305389172 38.4625335586
346 20 2 35.6895291189 19.297972965 39.2915402314
347 20 2 35.0964297919 18.8299108766 39.9999534871
348 20 2 34.2822870022 18.4513133449 40.5162225042
349 20 2 33.3202111952 18.1789869818 40.7863090914
350 20 2 32.2967958965 18.0200525107 40.7786128977
351 20 2 31.3042253059 17.9712957615 40.4868515684
352 20 2 30.4318723396 18.0194606203 39.9306333382
353 20 2 29.7581529014 18.1424572328 39.1536698751
354 20 2 29.3433788111 18.3113753437 38.2197922617
355 20 2 29.224260795 18.4931192679 37.2071332296
356 20 2 29.4105625557 18.6534243353 36.2010058965
357 20 2 29.884210877 18.7599798806 35.2861280606
358 20 2 30.6009428736 18.785374139 34.538900754
359 20 2 31.4943402501 18.7095926405 34.0204448125
360 20 2 32.4818828727 18.5218423916 33.7710301305
361 21 1 54.3910034183 42.729786879 37.3563766159
362 21 1 54.4085841052 46.115179536 41.7009643298
363 21 2 54.356097768 42.980151927 36.862940004
364 21 2 54.109586162 43.5598445067 36.0408166481
365 21 2 53.6572028567 44.2510492836 35.4160898499
366 21 2 53.0511109973 45.0061425243 35.0484145491
367 21 2 52.35748321 45.7716774999 34.9740172038
368 21 2 51.6504704207 46.4932557888 35.2023939973
369 21 2 51.0054435063 47.1204853201 35.715445326
370 21 2 50.4921237564 47.6115732654 36.4691254541
371 21 2 50.1682282554 47.9371351683 37.3974569805
372 21 2 50.0742093662 48.0828731364 38.4185442266
373 21 2 50.2295677746 48.050878996 39.442037466
374 21 2 50.6310751353 47.8594436366 40.3773676823
375 21 2 51.2530683139 47.5413899217 41.1420013144
376 21 2 52.0497884052 47.1410811096 41.6689626243
377 21 2 52.9595513439 46.7103774471 41.912938077
378 21 2 53.9103699842 46.3039094628 41.8544063579
379 22 1 32.4671315272 43.6935653685 13.6477451355
380 22 1 34.6436302757 47.5204949123 10.3380475071
381 22 2 32.6491801666 43.7039751944 14.1713200394
382 22 2 33.2012231451 43.7260038273 15.0473688739
383 22 2 33.9846988302 43.7654109208 15.7236167596
384 22 2 34.9295679477 43.8373409151 16.1416439091
385 22 2 35.9510813187 43.9539740108 16.2665655847
386 22 2 36.9575041658 44.1234160273 16.0902116029
387 22 2 37.8584771097 44.3489596131 15.6318709911
388 22 2 38.5732518065 44.6287841432 14.9365339245
389 22 2 39.0380506061 44.9561216566 14.0707911802
390 22 2 39.2118794476 45.3198737097 13.1167648447
391 22 2 39.0802641868 45.7056229234 12.1646234485
392 22 2 38.6565698152 46.0969470279 11.3043637227
393 22 2 37.9807823329 46.4769156406 10.6176080143
394 22 2 37.1158642984 46.8296333541 10.1701649684
395 22 2 36.1420162236 47.1416884935 10.0060315218
396 22 2 35.1493668466 47.4033754988 10.1433828839
397 23 1 53.8624699713 9.75250094512 56.6112547469
398 23 1 55.4959337631 13.8693976804 53.3371759087
399 23 2 53.6822890498 9.90737313498 57.1121840752
400 23 2 53.5474215694 10.3176007775 58.0535778903
401 23 2 53.6767508883 10.8650637797 58.9232079609
402 23 2 54.0490438174 11.5159009446 59.6377058481
403 23 2 54.6209227004 12.2268292291 60.127842348
404 23 2 55.3308189895 12.9490886965 60.3448372591
405 23 2 56.1045847969 13.6328866505 60.2648053627
406 23 2 56.8622509659 14.2319358981 59.8909333974
407 23 2 57.5253157115 14.7076735096 59.2531896093
408 23 2 58.0238995198 15.0327755659 58.4055923523
409 23 2 58.3031141867 15.1936475456 57.4212866848
410 23 2 58.3280655014 15.1916633729 56.3858776999
411 23 2 58.0870336141 15.043040194 55.3896282075
412 23 2 57.5925412206 14.7773602947 54.5192318983
413 23 2 56.880212204 14.4348748787 53.8499118083
414 23 2 56.0055247618 14.0628354457 53.4385642546
415 24 1 15.4366620246 9.35036128966 6.38147763676
416 24 1 10.4558666163 11.5636040252 5.58783500848
417 24 2 15.4854388343 9.03736007583 6.83648512529
418 24 2 15.4801255815 8.6391645407 7.79257631144
419 24 2 15.3360895353 8.50708289855 8.80968315356
420 24 2 15.0495967853 8.64427691543 9.79548129568
421 24 2 14.6298973727 9.02936572722 10.6604999551
422 24 2 14.098382213 9.61837455885 11.3262765711
423 24 2 13.4866334602 10.3487427235 11.7325081288
424 24 2 12.8335460102 11.1450256004 11.8425473664
425 24 2 12.1817824981 11.9257708947 11.646742921
426 24 2 11.5738848906 12.6109424554 11.1633189846
427 24 2 11.0483970784 13.1292150224 10.4367142939
428 24 2 10.6363518641 13.4244750345 9.53353184399
429 24 2 10.3584425354 13.4609349958 8.53646848225
430 24 2 10.2231368136 13.2263952606 7.53677765736
431 24 2 10.225905079 12.7333559479 6.62595229329
432 24 2 10.3496332146 12.0178776403 5.88738583654
433 25 1 30.0744413544 34.0781304095 11.5837179386
434 25 1 28.3415685103 30.8931683375 15.7297766976
435 25 2 29.979693824 34.6205923581 11.6480506008
436 25 2 29.5839038157 35.5626476011 11.8171081636
437 25 2 28.9392748346 36.3386349461 12.0516191192
438 25 2 28.1079217329 36.880130133 12.3488282272
439 25 2 27.1689779861 37.1400812545 12.7002657407
440 25 2 26.2113832194 37.0970972141 13.0925193654
441 25 2 25.3257769705 36.7573973788 13.5084566983
442 25 2 24.5962375173 36.1542447257 13.9287867286
443 25 2 24.0926187194 35.3449141501 14.3338180815
444 25 2 23.8641833173 34.4054722514 14.7052537517
445 25 2 23.9351129721 33.4238443838 15.0278587498
446 25 2 24.3023042721 32.4918008637 15.2908486678
447 25 2 24.9356515879 31.6965927339 15.4888726031
448 25 2 25.7807909942 31.1129994297 15.6225008573
449 25 2 26.7640551685 30.7965131458 15.6981729567
450 25 2 27.7991876629 30.7782811032 15.7276107337
451 26 1 63.5613341788 37.5571286887 25.9184453447
452 26 1 60.7692946226 32.858366264 26.5987259632
453 26 2 63.2615784824 38.0197786298 25.9774564125
454 26 2 62.5558326315 38.7767581558 25.9374181537
455 26 2 61.708184099 39.3300106669 25.7180967107
456 26 2 60.7843827642 39.6244116498 25.3539299547
457 26 2 59.8571193123 39.6284291331 24.8925574137
458 26 2 58.9993999765 39.3369976106 24.3904782567
459 26 2 58.2778925209 38.7719797273 23.9079017818
460 26 2 57.7468499305 37.9801736492 23.5032597511
461 26 2 57.4431656235 37.0290477316 23.2278807366
462 26 2 57.3830108697 36.0005912406 23.1213118725
463 26 2 57.5603608895 34.983841594 23.2077144053
464 26 2 57.9475439717 34.066769211 23.4936615617
465 26 2 58.4977635601 33.3282596115 23.9675394438
466 26 2 59.1493634386 32.8309235421 24.6006055568
467 26 2 59.8314472729 32.6153904356 25.3496084901
468 26 2 60.470340325 32.6966053167 26.1607299866
469 27 1 44.846734476 57.4105321971 48.6732721567
470 27 1 47.3915239181 56.5398780246 43.8667512804
471 27 2 44.4372675624 57.0556259321 48.7905715231
472 27 2 43.5992142437 56.4470539657 48.7928227058
473 27 2 42.7397140654 55.9440077228 48.5083895994
474 27 2 41.9442434772 55.5759322124 47.9566240396
475 27 2 41.2924430706 55.3599707868 47.1812433823
476 27 2 40.8508588852 55.2994026423 46.2463459664
477 27 2 40.6668771933 55.383343943 45.2305689899
478 27 2 40.7644055659 55.5877398079 44.2199212678
479 27 2 41.1416938618 55.8775567482 43.2999441192
480 27 2 41.7714937408 56.2099757299 42.5479148618
481 27 2 42.6035421633 56.538294835 42.0258035145
482 27 2 43.5691425215 56.8161858209 41.7746246552
483 27 2 44.5874258642 57.0019166226 41.8106992228
484 27 2 45.5727215474 57.0621549439 42.124166976
485 27 2 46.4423655263 56.9750062678 42.6798851863
486 27 2 47.1242346158 56.7320093917 43.4206316572
487 28 1 62.6956067741 43.3307631979 -1.03643078217
488 28 1 64.0092847907 45.0468149843 4.02973653266
489 28 2 62.1773399864 43.4451196224 -1.19675201164
490 28 2 61.1524579956 43.5624256045 -1.28924245702
491 28 2 60.1342084838 43.5601739652 -1.09987209792
492 28 2 59.2128263995 43.4559337461 -0.638474977658
493 28 2 58.4697178894 43.2765695486 0.0603214862167
494 28 2 57.970040686 43.0557930097 0.940252553617
495 28 2 57.7567654273 42.8310902174 1.92854430722
496 28 2 57.8467591777 42.6403051107 2.9425464961
497 28 2 58.2292481104 42.5181902642 3.89726553941
498 28 2 58.8667994685 42.493239429 4.71311110858
499 28 2 59.6987333034 42.5850905228 5.32315024008
500 28 2 60.6466530367 42.8027357683 5.67920781615
501 28 2 61.6215907704 43.1437021137 5.75625739645
502 28 2 62.5321161011 43.5942766343 5.55470220659
503 28 2 63.2926693743 44.1307563721 5.10033838681
504 28 2 63.8313598603 44.7216086971 4.44200385068
505 29 1 31.5791590167 9.7455456344 7.65297348787
506 29 1 28.1610218113 5.58323497362 6.50052264927
507 29 2 32.0958659694 9.68592272506 7.46103655731
508 29 2 33.0464681461 9.36365042591 7.20570473808
509 29 2 33.8991481533 8.78718163186 7.0902976072
510 29 2 34.5730723887 8.0009263208 7.10838024762
511 29 2 35.003699613 7.06841507337 7.24135106484
512 29 2 35.1486634413 6.06650869604 7.46013719474
513 29 2 34.9916337489 5.07839288561 7.72784429581
514 29 2 34.5438050499 4.18599642323 8.00311921542
515 29 2 33.8428761941 3.46252392776 8.24391904618
516 29 2 32.9496143754 2.96578375662 8.41134304866
517 29 2 31.9423166184 2.73291917039 8.47317818713
518 29 2 30.9096735419 2.77702297921 8.40683512687
519 29 2 29.9426858166 3.08594422297 8.20140709717
520 29 2 29.1263700782 3.62339564797 7.85866396872
521 29 2 28.5320102437 4.33226104131 7.39289094199
522 29 2 28.2106604715 5.13980098212 6.82958654919
523 30 1 15.076742278 27.4248359034 11.6977992779
524 30 1 16.1714652946 32.7964077593 12.2311211695
525 30 2 14.6001091395 27.2578436012 11.9265243835
526 30 2 13.7907361378 27.0612695883 12.5421316225
527 30 2 13.1415911063 27.0423194709 13.3489462803
528 30 2 12.7003297377 27.217382677 14.2694567635
529 30 2 12.4956605542 27.5851656505 15.2157888832
530 30 2 12.5347283225 28.1268097496 16.0977149858
531 30 2 12.802462857 28.8076100832 16.8308775843
532 30 2 13.2629525644 29.5801786233 17.3444779653
533 30 2 13.8627175388 30.3887632989 17.5877290063
534 30 2 14.5355838886 31.1743294155 17.5344840732
535 30 2 15.2087150329 31.8799402623 17.1856201076
536 30 2 15.8092502569 32.4559465031 16.5689576988
537 30 2 16.2709454659 32.864511373 15.7367254283
538 30 2 16.540210881 33.0830592401 14.7607995924
539 30 2 16.5809953792 33.1063332195 13.7261531709
540 30 2 16.3780723072 32.9468743023 12.7231111221
541 31 1 25.9458839068 15.4189434805 24.7494175919
542 31 1 27.3231534814 15.2837252595 30.080597525
543 31 2 26.0079986016 14.9395333897 24.4779613686
544 31 2 26.3385883304 14.0480524692 24.0672662619
545 31 2 26.9158574959 13.2228138365 23.8255230495
546 31 2 27.6815758548 12.5264240075 23.7879082648
547 31 2 28.560337312 12.0097458133 23.9709935343
548 31 2 29.4664326692 11.7072626014 24.371235188
549 31 2 30.3116614302 11.6339353153 24.9652972402
550 31 2 31.0133706719 11.783838907 25.7121783046
551 31 2 31.5019882914 12.1307023645 26.5569485898
552 31 2 31.7273640263 12.6303031342 27.4357563732
553 31 2 31.6633403069 13.2244977041 28.2816476473
554 31 2 31.3101363397 13.8465209853 29.030668519
555 31 2 30.6943281284 14.4270714932 29.6276941681
556 31 2 29.8664262526 14.9006277018 30.0314530968
557 31 2 28.8962721758 15.2114198821 30.2182887441
558 31 2 27.8666726741 15.3185131301 30.1843156184
559 32 1 57.9186016319 31.9398060238 49.2665642379
560 32 1 60.8206003417 30.890540671 44.704319107
561 32 2 58.2185060812 32.0981340593 49.7051646324
562 32 2 58.9064223969 32.2033440598 50.4722371645
563 32 2 59.715654727 32.0625473932 51.1031235295
564 32 2 60.5856622062 31.6996163051 51.5321529954
565 32 2 61.4503647307 31.1586690706 51.7120527023
566 32 2 62.2441657074 30.5000489161 51.6182562599
567 32 2 62.9079307329 29.794824148 51.2511428055
568 32 2 63.3943772892 29.1183107634 50.636002448
569 32 2 63.672384221 28.5432079139 49.820731248
570 32 2 63.7298282161 28.132971876 48.8714658206
571 32 2 63.5746887612 27.9360324468 47.8665554356
572 32 2 63.2343208673 27.9813788997 46.8894210195
573 32 2 62.7529618478 28.2759178112 46.0209519095
574 32 2 62.1876993902 28.8038435736 45.3321333453
575 32 2 61.6032684053 29.5280789681 44.8775766509
576 32 2 61.0661508838 30.3936544986 44.6905417871
577 33 1 64.0687651246 55.465056542 14.3145977697
578 33 1 61.4639981071 51.664105287 17.3319796263
579 33 2 63.9416706933 55.990614268 14.4371409615
580 33 2 63.4828695852 56.8953665155 14.646002602
581 33 2 62.7728322589 57.6270617893 14.828121499
582 33 2 61.8747645762 58.1182682614 14.9858836936
583 33 2 60.8690100762 58.3234730091 15.1238951729
584 33 2 59.8457272135 58.223230206 15.2485620666
585 33 2 58.8966720325 57.825933476 15.3675067716
586 33 2 58.1068352335 57.1670508715 15.4888732232
587 33 2 57.5466958529 56.3058922042 15.6205846312
588 33 2 57.265797582 55.3202033618 15.7696213335
589 33 2 57.2882331998 54.299080304 15.941384586
590 33 2 57.6104486808 53.334848576 16.1392042756
591 33 2 58.2015671204 52.5146484685 16.3640354236
592 33 2 59.0062029529 51.9124927774 16.6143711419
593 33 2 59.9495099661 51.5825210451 16.8863799758