LAMMPS input file for bananas

4320 atoms

2 atom types

0 100.793683992 xlo xhi
0 100.793683992 ylo yhi
0 100.793683992 zlo zhi

Masses

 1 1
 2 1

Atoms

1 1 1 11.3750612234 56.9231835133 79.6764571883
2 1 1 9.12608246424 57.7164329468 84.6595125701
3 1 2 11.0330446422 56.706675397 79.2976030187
4 1 2 10.3512002772 56.1433836038 78.7579358724
5 1 2 9.65480800919 55.4271396038 78.4831953536
6 1 2 8.99079755492 54.6320526945 78.5026101521
7 1 2 8.40314711534 53.8394184937 78.8185974871
8 1 2 7.92887488016 53.1303090617 79.4065427835
9 1 2 7.59466491879 52.578183399 80.2170432249
10 1 2 7.41443499875 52.2421918553 81.1804106883
11 1 2 7.38806801833 52.1617847331 82.2130236305
12 1 2 7.50142268012 52.3531164978 83.2249489674
13 1 2 7.72762243246 52.8075733417 84.1281392355
14 1 2 8.0295051953 53.4925583093 84.8444578817
15 1 2 8.36301058448 54.3544624228 85.3128012019
16 1 2 8.68119589793 55.3235509973 85.4946677803
17 1 2 8.93851481758 56.3203197704 85.3776677904
18 1 2 9.09496883445 57.2627415039 84.9766522944
19 2 1 82.7329590974 90.2991472502 26.4328162712
20 2 1 86.8286944957 94.0021963244 26.2585459007
21 2 2 82.3103589156 90.4019079511 26.0889690482
22 2 2 81.528683192 90.8080371183 25.5435406167
23 2 2 80.8278953784 91.4646413101 25.1546738185
24 2 2 80.281006263 92.3186113435 24.9423121257
25 2 2 79.946999179 93.2988486667 24.9103110416
26 2 2 79.8654538318 94.3227458016 25.0460866822
27 2 2 80.0529387137 95.3037157953 25.3217627635
28 2 2 80.501500931 96.1590843888 25.69671145
29 2 2 81.1793910888 96.8176255552 26.121256474
30 2 2 82.033957163 97.2260535615 26.5412009937
31 2 2 82.9964435922 97.3538798206 26.9027674914
32 2 2 83.988258163 97.1961918449 27.1574994499
33 2 2 84.9281354803 96.774101006 27.2666780345
34 2 2 85.7395440908 96.1328182899 27.204851212
35 2 2 86.3576621205 95.3375334363 26.9621536344
36 2 2 86.7352856152 94.4674730681 26.5452058401
37 3 1 58.8547369157 26.9171528815 69.4508225515
38 3 1 53.5551938707 25.7625940516 70.4995496296
39 3 2 58.9916653017 26.9183033163 68.9135787692
40 3 2 59.140521562 26.7109731102 67.909434352
41 3 2 59.1256175697 26.2555497678 66.9789412239
42 3 2 58.9327293039 25.6014611232 66.1989334207
43 3 2 58.5638555344 24.8162428216 65.6325286431
44 3 2 58.0370356393 23.9793826261 65.3233752468
45 3 2 57.3847053641 23.1750753202 65.2916738117
46 3 2 56.6507403898 22.4845485788 65.5323359132
47 3 2 55.8864571821 21.9786592823 66.0154479181
48 3 2 55.1459356326 21.7114351014 66.6889975326
49 3 2 54.4810898214 21.7151500197 67.4836145836
50 3 2 53.936936187 21.9973826457 68.318893925
51 3 2 53.547490399 22.5403254435 69.1107241516
52 3 2 53.3326669199 23.3024078418 69.7789541286
53 3 2 53.2964638558 24.2220852805 70.2546985539
54 3 2 53.4265985391 25.2234488325 70.4866166689
55 4 1 69.6644222001 55.0759329032 49.7261050274
56 4 1 71.2335110642 49.9627314542 48.343671615
57 4 2 69.5508358964 55.4092275135 49.2978592541
58 4 2 69.5483166063 55.9592573502 48.4198439677
59 4 2 69.8104550413 56.3605974146 47.5013345204
60 4 2 70.3047022855 56.5645728016 46.6138866547
61 4 2 70.9773533253 56.5404978694 45.8262249332
62 4 2 71.7584421179 56.2784731528 45.197978678
63 4 2 72.5681188093 55.7902876739 44.7742469176
64 4 2 73.3239278348 55.1083444036 44.5814877309
65 4 2 73.9483235237 54.2827068174 44.6251066639
66 4 2 74.3757381793 53.3765357441 44.8889640292
67 4 2 74.5585584001 52.4603324243 45.3368459944
68 4 2 74.4714649131 51.605512511 45.915765377
69 4 2 74.1137403587 50.877896724 46.5607912842
70 4 2 73.5093346756 50.3317114668 47.2009673898
71 4 2 72.7046821282 50.0046462351 47.7657794144
72 4 2 71.764468947 49.9144183198 48.1915823131
73 5 1 55.1844533861 86.6035402519 13.0252674843
74 5 1 55.2705893509 83.341728787 17.482975149
75 5 2 55.0564691935 87.1334899247 13.1260393992
76 5 2 54.6356298362 88.0299185972 13.430604469
77 5 2 54.0207988792 88.7353153977 13.8754058396
78 5 2 53.2770370164 89.1884705326 14.4365820387
79 5 2 52.4811566494 89.351165362 15.079664339
80 5 2 51.7147206418 89.2116559266 15.7627184913
81 5 2 51.0566080829 88.7857433779 16.4401669187
82 5 2 50.5758246689 88.1153337458 17.0669429913
83 5 2 50.3252130186 87.2646183158 17.6025987288
84 5 2 50.3366362095 86.3142227652 18.014991526
85 5 2 50.618073544 85.3538583475 18.2832138651
86 5 2 51.1528932567 84.4741449521 18.3994989805
87 5 2 51.9013684558 83.7583513432 18.3699287781
88 5 2 52.804298123 83.2748054344 18.2138794865
89 5 2 53.7884031279 83.0706663825 17.9622555649
90 5 2 54.7730054253 83.1676261557 17.654672845
91 6 1 28.4499459834 58.4538420025 92.3027002632
92 6 1 25.7530689328 54.8588654044 89.0900707336
93 6 2 28.9473412861 58.2829139833 92.4780944285
94 6 2 29.7583252281 57.7705213415 92.8695134337
95 6 2 30.3562428688 57.0414456127 93.2989235964
96 6 2 30.6932279953 56.152903157 93.7116987654
97 6 2 30.745197696 55.1766453003 94.0547290244
98 6 2 30.5140474537 54.1924183928 94.2812615192
99 6 2 30.0274783771 53.2806951425 94.3551618558
100 6 2 29.3364723191 52.5153397428 94.254207653
101 6 2 28.5106450169 51.9568753487 93.9721140539
102 6 2 27.6319008039 51.646967553 93.5191065733
103 6 2 26.7869672485 51.6046266789 92.9209890693
104 6 2 26.0594901679 51.82447504 92.2167917912
105 6 2 25.5224095357 52.2772371015 91.4552138757
106 6 2 25.231311198 52.9124078677 90.6901845516
107 6 2 25.2193603722 53.6628562769 89.9759476343
108 6 2 25.4942787263 54.4509440183 89.3621173469
109 7 1 30.2937132013 2.41312401898 46.2917942702
110 7 1 26.0813570942 5.91729163053 46.9952546022
111 7 2 30.3536148512 2.03615912459 46.6939022766
112 7 2 30.4533471662 1.51954014021 47.5864314366
113 7 2 30.5138399081 1.284184517 48.5936048924
114 7 2 30.5112991459 1.34731068233 49.6277512278
115 7 2 30.4276762839 1.69893124632 50.5987405207
116 7 2 30.2523131431 2.30276332574 51.422199445
117 7 2 29.9829134257 3.09953563182 52.0272016728
118 7 2 29.6257520166 4.0123908898 52.3627326207
119 7 2 29.1951030443 4.95389117414 52.402339292
120 7 2 28.7119388322 5.83398764171 52.1465413969
121 7 2 28.2020183276 6.56822824314 51.6227839823
122 7 2 27.6935392422 7.08545530144 50.8829358891
123 7 2 27.2145679063 7.33429134403 49.9985620459
124 7 2 26.7904810975 7.28782202209 49.0544005174
125 7 2 26.4416530158 6.94604928147 48.1406388558
126 7 2 26.181598229 6.33589118538 47.3446937466
127 8 1 33.867011515 36.5705094619 41.8945303592
128 8 1 29.7146878431 38.0432867954 45.2272658888
129 8 2 33.8426861303 36.0491885191 41.707409173
130 8 2 33.7665770151 35.0231736654 41.5851351623
131 8 2 33.6409663452 34.0105555843 41.764792037
132 8 2 33.4584517482 33.1014395589 42.2270111252
133 8 2 33.216817493 32.3764969367 42.9266689647
134 8 2 32.919236447 31.8996121514 43.7970001855
135 8 2 32.5739808784 31.7120598282 44.7556829951
136 8 2 32.1936684603 31.8287427115 45.71234259
137 8 2 31.7941122042 32.2368333198 46.5767885772
138 8 2 31.392879146 32.8969431365 47.2672355876
139 8 2 31.0076891576 33.7467127675 47.7177577937
140 8 2 30.6547998278 34.7064958338 47.8842978727
141 8 2 30.347524627 35.6866185254 47.7486827137
142 8 2 30.0950194194 36.5955531304 47.3202798481
143 8 2 29.9014479308 37.3482605402 46.6351436243
144 8 2 29.7656022361 37.8739413378 45.75272895
145 9 1 23.5368073219 30.7633487433 3.07009103568
146 9 1 20.3049927727 28.9527753971 7.16828453267
147 9 2 24.080980954 30.704412278 3.15831313785
148 9 2 25.0488145988 30.6989066642 3.52806675213
149 9 2 25.8759376297 30.8150624729 4.14111269751
150 9 2 26.4876461759 31.0252807774 4.95047721988
151 9 2 26.8288708215 31.2933891062 5.89129265156
152 9 2 26.869196035 31.5779384665 6.8867099258
153 9 2 26.6056324639 31.8359813098 7.85490316387
154 9 2 26.0628894063 32.0269860854 8.71652788514
155 9 2 25.2911226242 32.1165315835 9.40195304448
156 9 2 24.3613627801 32.0794443364 9.85760771587
157 9 2 23.3590411817 31.9020931123 10.0508639392
158 9 2 22.3762029467 31.5836313663 9.97301067142
159 9 2 21.5031173363 31.1360744003 9.64004777519
160 9 2 20.8200499533 30.5832042006 9.09122767381
161 9 2 20.3899467469 29.958401773 8.38547759794
162 9 2 20.252696658 29.3016045539 7.59602852598
163 10 1 33.6728852794 87.9550826542 86.0086872343
164 10 1 29.0629088106 90.8083778363 84.9481144543
165 10 2 33.8722878776 87.6656280393 85.5799259746
166 10 2 34.0238914811 87.045573188 84.7638387612
167 10 2 33.8741307656 86.3828359102 83.9816616457
168 10 2 33.4333128427 85.749776278 83.2900222368
169 10 2 32.7382739102 85.2160493249 82.7372958731
170 10 2 31.8490217317 84.8422561766 82.3591963405
171 10 2 30.8432660891 84.6744204199 82.1755206558
172 10 2 29.8093357433 84.7397931756 82.1883446221
173 10 2 28.8381275045 85.0443692322 82.381833624
174 10 2 28.0148212304 85.5723406365 82.7236859114
175 10 2 27.4111159097 86.2875375464 83.168076817
176 10 2 27.0786944915 87.1367250156 83.6598355527
177 10 2 27.0445131219 88.0544552161 84.1394738791
178 10 2 27.3083441639 88.9690328334 84.5486083
179 10 2 27.8427969457 89.8090499025 84.8352815614
180 10 2 28.5958143472 90.509894453 84.9586984168
181 11 1 81.3152431858 4.94078110394 23.5200044456
182 11 1 79.1872983267 8.52556698868 27.1448012535
183 11 2 81.121654529 4.42299293391 23.5624359312
184 11 2 80.8132294958 3.48266621667 23.8692089336
185 11 2 80.5830466164 2.65577543131 24.4494825606
186 11 2 80.4335540118 2.02077342386 25.254389029
187 11 2 80.3598451005 1.63862289115 26.2145858724
188 11 2 80.3501058198 1.54723979386 27.2465763215
189 11 2 80.386691446 1.75803741813 28.2603198121
190 11 2 80.447734864 2.25488608494 29.1674389413
191 11 2 80.5091396966 2.99558332734 29.8892748318
192 11 2 80.5467766243 3.91570053242 30.3640566783
193 11 2 80.5386827088 4.93445543725 30.5525319913
194 11 2 80.4670632558 5.96207521618 30.4415443565
195 11 2 80.3199137541 6.90797903401 30.0452326071
196 11 2 80.0921140544 7.68903424695 29.4037421065
197 11 2 79.7858950576 8.23713372097 28.5795656061
198 11 2 79.4106353737 8.505403615 27.651847198
199 12 1 51.6696797888 80.1824593388 22.6156734287
200 12 1 52.0297767251 74.671905106 22.4669679955
201 12 2 51.6315768489 80.4004215705 23.1240258847
202 12 2 51.3887049526 80.6490296965 24.1000675093
203 12 2 50.9529453462 80.6625227905 25.0399512856
204 12 2 50.3759182439 80.428370478 25.8679986447
205 12 2 49.7221200144 79.9566146016 26.518724608
206 12 2 49.0630445095 79.2789539336 26.9428065683
207 12 2 48.4706665906 78.4458549176 27.1115799134
208 12 2 48.0108818124 77.5219517874 27.019650729
209 12 2 47.7375002192 76.580155329 26.6853874397
210 12 2 47.6873417031 75.6950072574 26.1492465759
211 12 2 47.8768799694 74.9358859387 25.4700852695
212 12 2 48.3007410026 74.3606827371 24.7197965833
213 12 2 48.9321928928 74.0105253721 23.9767566508
214 12 2 49.7255823787 73.9060292367 23.318680901
215 12 2 50.6204960199 74.0454183595 22.8155405046
216 12 2 51.5472667204 74.4046872795 22.523184689
217 13 1 67.0735790535 53.5604838927 75.6256431089
218 13 1 62.2817094668 51.0912644579 76.8335058117
219 13 2 67.4486095034 53.5550060253 76.0339368055
220 13 2 67.9707551542 53.6270533537 76.9259138864
221 13 2 68.2172087574 53.785190674 77.9197464783
222 13 2 68.162827851 53.9975281018 78.9323695794
223 13 2 67.809890235 54.2272355576 79.8790054836
224 13 2 67.187886355 54.4358997306 80.6808910411
225 13 2 66.3508313277 54.5870253486 81.2724567096
226 13 2 65.3723416072 54.6493616251 81.6073030424
227 13 2 64.3389250415 54.5997506847 81.662429874
228 13 2 63.342095914 54.4252383418 81.4403327241
229 13 2 62.4700336609 54.1242548395 80.968775337
230 13 2 61.7995455512 53.7067579293 80.2982590912
231 13 2 61.3890659095 53.1933252483 79.4974199333
232 13 2 61.2733299833 52.6132787227 78.6467723948
233 13 2 61.4602079187 52.0020119527 77.8313709082
234 13 2 61.9299874165 51.3977641801 77.1330573226
235 14 1 10.3001314711 54.1547772079 78.2615494882
236 14 1 7.63613763152 50.7762625304 81.7266276197
237 14 2 10.2285769397 54.6954377612 78.3612876611
238 14 2 9.86685814021 55.6479220038 78.5493921238
239 14 2 9.23875086992 56.4493491259 78.7408231455
240 14 2 8.40148877095 57.0271235525 78.9373400679
241 14 2 7.43136938902 57.3290350539 79.1402386666
242 14 2 6.41679985606 57.3280175685 79.3502330443
243 14 2 5.45023881647 57.0246162025 79.5673905426
244 14 2 4.6197690688 56.4469375446 79.7911256037
245 14 2 4.0010690541 55.6480878253 80.0202531424
246 14 2 3.65051496823 54.7013324265 80.2530965639
247 14 2 3.60004222236 53.6934179374 80.4876405803
248 14 2 3.85423461556 52.7166654346 80.7217148993
249 14 2 4.38990653376 51.8605556633 80.9531920399
250 14 2 5.15821625653 51.2035731058 81.1801812473
251 14 2 6.08911774933 50.8060523315 81.4012008298
252 14 2 7.09774517235 50.7046786613 81.6153132108
253 15 1 67.2617251267 56.9308312148 46.9648074087
254 15 1 67.9793136665 53.2662541519 42.8936978918
255 15 2 66.9908045455 56.7373771442 47.4081573261
256 15 2 66.3287405546 56.3028629796 48.0762282235
257 15 2 65.5238360186 55.7935811092 48.4839176587
258 15 2 64.6563980994 55.2380850171 48.5953876505
259 15 2 63.8124337095 54.66914049 48.4017998282
260 15 2 63.0758102122 54.1207391037 47.9221210253
261 15 2 62.5206111351 53.6249999817 47.2013945038
262 15 2 62.2043836548 53.2092422226 46.3066343808
263 15 2 62.1628933258 52.8934948378 45.3207174711
264 15 2 62.4068641453 52.6886711602 44.334829287
265 15 2 62.92100109 52.5955741233 43.4401527226
266 15 2 63.6653842162 52.604823076 42.7195569763
267 15 2 64.5791072562 52.6977088038 42.2400442457
268 15 2 65.5858290619 52.8478988236 42.0466426555
269 15 2 66.6007318961 53.0238375192 42.1583020648
270 15 2 67.5382523428 53.1916223515 42.566166838
271 16 1 79.6781351482 63.1905292343 90.3850633933
272 16 1 77.2251325158 58.9950761429 93.0116472022
273 16 2 79.4866186834 63.6934776076 90.5182773771
274 16 2 78.9192119863 64.5357157032 90.7235446215
275 16 2 78.123278725 65.1822471591 90.8716571848
276 16 2 77.1682595617 65.5722599937 90.9679816248
277 16 2 76.1380954133 65.6683232123 91.0226048487
278 16 2 75.1235764614 65.4597985419 91.0494147179
279 16 2 74.2140668694 64.9638100816 91.0648342066
280 16 2 73.4893594787 64.2236834866 91.086324492
281 16 2 73.0124029037 63.3049969504 91.1307934142
282 16 2 72.823563934 62.2896039282 91.2130543722
283 16 2 72.93694821 61.2681724127 91.3444761218
284 16 2 73.3391145305 60.3319207891 91.5319465439
285 16 2 73.9902999831 59.5643035233 91.777244833
286 16 2 74.8280442271 59.03340451 92.0768793278
287 16 2 75.7728825865 58.785731408 92.4224057674
288 16 2 76.7355890428 58.8419765913 92.8011969625
289 17 1 29.8598555371 25.4307457375 86.2220993581
290 17 1 25.6597289557 23.0392342572 88.8974686038
291 17 2 30.2894970424 25.5736743359 86.5420386972
292 17 2 30.9260301833 25.9421830985 87.2717488203
293 17 2 31.2965528823 26.4000976985 88.1240851153
294 17 2 31.3680337715 26.8909676163 89.0336933922
295 17 2 31.1346983442 27.3553385431 89.929999273
296 17 2 30.6185552868 27.7361714823 90.7436408573
297 17 2 29.8673904449 27.9840417017 91.4127908747
298 17 2 28.9504112717 28.0616436655 91.8887920747
299 17 2 27.9519387537 27.9471913344 92.1405922054
300 17 2 26.9637217777 27.6364039046 92.1575743429
301 17 2 26.0765744654 27.142895992 91.950524596
302 17 2 25.3720987087 26.4969366961 91.550648981
303 17 2 24.9152463756 25.7426906524 91.0067290765
304 17 2 24.7483991208 24.9341925441 90.3806757133
305 17 2 24.8875054112 24.1304219851 89.7418859673
306 17 2 25.3206268658 23.3899276858 89.1609178016
307 18 1 37.9294141338 91.4335334987 33.3391681224
308 18 1 34.6304055807 87.8100176297 35.8895928665
309 18 2 37.9202886852 91.9462709861 33.5498778357
310 18 2 37.6701539686 92.8795362102 33.9239081233
311 18 2 37.1370423984 93.7026196502 34.2582368774
312 18 2 36.368284339 94.3369502266 34.5412311832
313 18 2 35.4326887023 94.7211611791 34.765937124
314 18 2 34.4142711996 94.8166834825 34.9307136115
315 18 2 33.4045965337 94.6112613104 35.039381967
316 18 2 32.4944325214 94.1200691211 35.100877618
317 18 2 31.7654768493 93.3843285461 35.128435658
318 18 2 31.2829105482 92.4675511485 35.1383845031
319 18 2 31.0894569162 91.4497495142 35.1486576003
320 18 2 31.2014874042 90.4201443179 35.1771588419
321 18 2 31.6075294024 89.4690320978 35.2401306737
322 18 2 32.2693119374 88.6795549668 35.3506736393
323 18 2 33.1252539695 88.1201224317 35.5175523004
324 18 2 34.0960773397 87.838176049 35.7443963708
325 19 1 37.7963796623 37.8815612043 26.950432323
326 19 1 34.615113881 35.5063623052 30.7917822524
327 19 2 37.8188629546 38.4349662872 26.9753101007
328 19 2 37.6263556881 39.4516684696 27.027345049
329 19 2 37.145590763 40.366692254 27.0983842763
330 19 2 36.4205648187 41.0996816102 27.2009220496
331 19 2 35.5175382336 41.5868724594 27.3445816276
332 19 2 34.5189956689 41.7869045997 27.5352381264
333 19 2 33.516127812 41.6845915783 27.7744830185
334 19 2 32.600519589 41.2923048955 28.0594790741
335 19 2 31.8558024438 40.6488463759 28.383218967
336 19 2 31.3500315551 39.8159114857 28.7351639741
337 19 2 31.129482789 38.8724659559 29.1022045514
338 19 2 31.2144347777 37.9075482669 29.4698552338
339 19 2 31.5973205758 37.0121540291 29.8235749471
340 19 2 32.2434173678 36.2709419759 30.1500923874
341 19 2 33.0940113592 35.7545175469 30.4386156656
342 19 2 34.0717493828 35.5129973905 30.6818159585
343 20 1 27.5591211812 60.9501989339 12.4286836614
344 20 1 27.5083924019 55.9027773966 14.673445002
345 20 2 27.230757633 61.3203690259 12.6787497953
346 20 2 26.4547662135 61.8434182319 13.1233921866
347 20 2 25.5325716078 62.1019480314 13.518575009
348 20 2 24.5504512897 62.0677070052 13.846778062
349 20 2 23.6001448014 61.739129012 14.0965861721
350 20 2 22.7704919396 61.1414759385 14.2637296552
351 20 2 22.1393352456 60.3245351458 14.3514734869
352 20 2 21.7664248651 59.3580814846 14.3703197091
353 20 2 21.687972483 58.3255175038 14.3370501965
354 20 2 21.9133507245 57.3162715313 14.2731970337
355 20 2 22.4242388655 56.4176465208 14.2030799234
356 20 2 23.1762927175 55.7068626211 14.1515895102
357 20 2 24.1031864825 55.2440187657 14.1419186651
358 20 2 25.1226581712 55.0666148158 14.1934485174
359 20 2 26.1440075643 55.1861335481 14.3199819162
360 20 2 27.0763632947 55.5869940304 14.5284853379
361 21 1 29.022908857 10.0994405579 32.1185634362
362 21 1 25.148868166 8.34063370669 35.6422544337
363 21 2 29.111251367 10.6467616103 32.1226688679
364 21 2 29.0424066533 11.6804438897 32.1081305821
365 21 2 28.6746153553 12.6486814737 32.0817572402
366 21 2 28.0397686148 13.4672944774 32.0646581919
367 21 2 27.1940989632 14.0657408962 32.0770974598
368 21 2 26.2130548771 14.3935463217 32.1366467278
369 21 2 25.1844238507 14.4249045483 32.2565837295
370 21 2 24.2003308008 14.1610297403 32.4446820177
371 21 2 23.3488411265 13.6300457643 32.7025024262
372 21 2 22.7059337839 12.8844227734 33.0252508039
373 21 2 22.3285760067 11.9961946932 33.4022149888
374 21 2 22.2495308958 11.0503935222 33.8177411931
375 21 2 22.4743711497 10.137298892 34.2526608039
376 21 2 22.9809711281 9.3442093208 34.6860375511
377 21 2 23.7215235451 8.74748518608 35.0970757926
378 21 2 24.626896975 8.40558868076 35.4670159813
379 22 1 32.3082851948 18.9394894961 17.962095105
380 22 1 36.2226253122 19.6211208736 21.8002341296
381 22 2 32.4007048053 19.2053265359 17.4844227571
382 22 2 32.6097227155 19.8869566553 16.7326635505
383 22 2 32.8650186745 20.7515804847 16.2220760281
384 22 2 33.1623101192 21.7182672589 15.9971660712
385 22 2 33.4934867104 22.6967834478 16.0764008147
386 22 2 33.8473495684 23.595817302 16.4505254168
387 22 2 34.2106320206 24.3313016744 17.0834066135
388 22 2 34.569208824 24.8340765159 17.9153261685
389 22 2 34.9093836426 25.0561926293 18.8684240313
390 22 2 35.2191374323 24.9752821103 19.8537950726
391 22 2 35.4892239443 24.5965971223 20.7795925489
392 22 2 35.7140124962 23.9525311756 21.559399688
393 22 2 35.8920011938 23.0996665455 22.120106347
394 22 2 36.0259538243 22.1136169493 22.4085728058
395 22 2 36.1226479447 21.082135558 22.3964733111
396 22 2 36.1922571258 20.0971165294 22.0828778929
397 23 1 44.8859302473 63.1998328642 73.9842514162
398 23 1 43.1884016142 59.3172856891 77.5285729358
399 23 2 44.7476593799 63.7186803192 74.1223096422
400 23 2 44.2742304546 64.5960085543 74.4044624941
401 23 2 43.5620736681 65.283102746 74.7113570919
402 23 2 42.6783301844 65.717019277 75.0341014341
403 23 2 41.7057808365 65.8578909967 75.3623588571
404 23 2 40.7353008746 65.6925610061 75.6852901948
405 23 2 39.8575769298 65.2357818734 75.9925417396
406 23 2 39.1548411701 64.5288709775 76.275188955
407 23 2 38.6933760582 63.6359445386 76.5265499236
408 23 2 38.5174728823 62.6380735967 76.7427943854
409 23 2 38.645394723 61.6258946028 76.9232928565
410 23 2 39.067711823 60.6913481484 77.0706740043
411 23 2 39.7481610838 59.9192988266 77.1905850518
412 23 2 40.6269513505 59.3798000512 77.2911770482
413 23 2 41.6262132154 59.1217088752 77.3823619224
414 23 2 42.657096607 59.1682328012 77.4749090377
415 24 1 91.7561374711 94.77575356 52.8342197003
416 24 1 89.7896461015 91.9034728927 57.123847484
417 24 2 91.9168269813 95.292841947 52.9532997966
418 24 2 92.0050154866 96.2732276031 53.2765903223
419 24 2 91.8180822019 97.1912214474 53.7190756443
420 24 2 91.3810850635 97.960853091 54.2577319775
421 24 2 90.7418746594 98.5096749631 54.8607698065
422 24 2 89.9667327765 98.7853657134 55.4905314144
423 24 2 89.1343309926 98.7604991633 56.1069232833
424 24 2 88.3285599725 98.435044129 56.6710705114
425 24 2 87.630883058 97.8363672633 57.1488601561
426 24 2 87.112911102 97.0167386589 57.5140505379
427 24 2 86.829875331 96.048567569 57.7506630991
428 24 2 86.8155931659 95.0178024971 57.8544388066
429 24 2 87.0793858549 94.016097221 57.8332263515
430 24 2 87.6052288663 93.1324567957 57.7062667619
431 24 2 88.3532124822 92.4451249808 57.5024396346
432 24 2 89.263179462 92.0144525306 57.257630837
433 25 1 48.9037970609 38.1310180639 43.1091503686
434 25 1 53.2212356259 41.5755256785 42.9947712079
435 25 2 48.7502607959 37.9324217475 42.6148147473
436 25 2 48.468170875 37.7879923535 41.6283992984
437 25 2 48.2293065765 37.9466127851 40.632792239
438 25 2 48.0724249397 38.3911425843 39.7101702033
439 25 2 48.0288105033 39.0783814184 38.9360574356
440 25 2 48.1194238034 39.9430066747 38.3724419575
441 25 2 48.3529908768 40.9035274425 38.0621255252
442 25 2 48.7252079058 41.8697121912 38.0248223638
443 25 2 49.2191334999 42.7508131338 38.2553622685
444 25 2 49.8067328582 43.4638376445 38.724161855
445 25 2 50.4514330666 43.9411128155 39.3799210058
446 25 2 51.1114566209 44.1364536607 40.1542987386
447 25 2 51.7436293352 44.0293727545 40.9681423046
448 25 2 52.3073155531 43.6269476057 41.7387017498
449 25 2 52.7681219792 42.9631755613 42.387172352
450 25 2 53.1010325362 42.0958750394 42.8458774609
451 26 1 93.0459874985 2.153627358 93.9914623851
452 26 1 87.7341310913 2.58555469159 95.4459765133
453 26 2 93.3960913254 2.05928228997 94.4108761504
454 26 2 93.9398205306 2.06598137208 95.2927852642
455 26 2 94.2880844763 2.29913143927 96.2403100826
456 26 2 94.3989210006 2.72547830472 97.1780699806
457 26 2 94.2520088163 3.2941584098 98.0315743798
458 26 2 93.8505197422 3.94133490153 98.734012365
459 26 2 93.2208296001 4.59601619107 99.2323423212
460 26 2 92.4101141292 5.18652664734 99.4921265344
461 26 2 91.4820490436 5.64703963917 99.5006700977
462 26 2 90.5110061612 5.92357745684 99.2681780179
463 26 2 89.5752746112 5.97893123604 98.8268250564
464 26 2 88.7499249891 5.79605244638 98.2278230857
465 26 2 88.0999668729 5.37960681937 97.5367532643
466 26 2 87.6744233735 4.75554907951 96.827588489
467 26 2 87.5018628092 3.96875724047 96.1759509633
468 26 2 87.58779478 3.07894209408 95.6522194359
469 27 1 12.4457909897 69.633677999 22.7612938037
470 27 1 10.8704131156 68.8866625993 28.0032537051
471 27 2 12.4368385293 70.1600608297 22.5874474433
472 27 2 12.2021390881 71.1411105928 22.3509996778
473 27 2 11.709068737 72.047906173 22.2612588524
474 27 2 11.0087373171 72.8071595843 22.3420064275
475 27 2 10.1711459616 73.3590309149 22.6014843013
476 27 2 9.27880668034 73.6625825754 23.031643583
477 27 2 8.4192216099 73.6995106505 23.6088782278
478 27 2 7.67690742829 73.4758132524 24.2961766644
479 27 2 7.1256918854 73.0212438084 25.0464953014
480 27 2 6.82198460097 72.3865991155 25.8070464242
481 27 2 6.79963547849 71.6390893489 26.5241096548
482 27 2 7.066849377 70.856212033 27.1479284201
483 27 2 7.60543826013 70.1186883502 27.6372451308
484 27 2 8.37247898697 69.5031056202 27.9630617006
485 27 2 9.30422564164 69.0749365711 28.1112826439
486 27 2 10.3219198032 68.8825716745 28.0839998417
487 28 1 89.0639909762 74.329393205 67.3422994337
488 28 1 87.6719596114 70.4201791306 63.6956180572
489 28 2 88.6915983654 74.4179505519 67.7433766431
490 28 2 87.8450183678 74.598139361 68.3128363096
491 28 2 86.8659941539 74.7678625082 68.606359142
492 28 2 85.8376184909 74.893810053 68.6008163159
493 28 2 84.8474823987 74.9466620841 68.3003380424
494 28 2 83.9796914623 74.9037611507 67.7359371106
495 28 2 83.307199833 74.751177429 66.9626821542
496 28 2 82.8851606521 74.4849783882 66.0546782932
497 28 2 82.7458989897 74.1115872299 65.09831265
498 28 2 82.8959655009 73.647197431 64.1843803943
499 28 2 83.315539351 73.1162967512 63.3998090057
500 28 2 83.9602348317 72.5494352391 62.8197350669
501 28 2 84.7651469998 71.9804406773 62.5006557643
502 28 2 85.6507675893 71.4433352698 62.475279321
503 28 2 86.5302319773 70.9692346099 62.7495437292
504 28 2 87.3172366622 70.5835115761 63.3020755187
505 29 1 58.893771006 62.7380199224 88.8168770824
506 29 1 59.2038815942 64.875446078 93.9014844334
507 29 2 59.0776730592 63.0696844486 88.4124512364
508 29 2 59.2793531967 63.8472481593 87.7581043795
509 29 2 59.2936624498 64.7738274705 87.294751343
510 29 2 59.1344530807 65.7732916215 87.0729996825
511 29 2 58.8313931104 66.7628665929 87.1214356339
512 29 2 58.4272621576 67.6606797381 87.4440185544
513 29 2 57.974052191 68.3932222551 88.0197200379
514 29 2 57.5282286002 68.9020493185 88.8044405975
515 29 2 57.1455835265 69.1491071681 89.7350292164
516 29 2 56.8761505579 69.1202016083 90.735039394
517 29 2 56.759644302 68.8262917702 91.7216970401
518 29 2 56.821840505 68.3024912171 92.6134451121
519 29 2 57.0722266618 67.6048674361 93.3373773216
520 29 2 57.5031372559 66.8053314372 93.8358833472
521 29 2 58.0904524507 65.9850832565 94.0718998619
522 29 2 58.7957965485 65.2272107903 94.0322887559
523 30 1 87.582670389 34.947867952 60.7021740399
524 30 1 86.2764790825 32.0834339201 65.2416534163
525 30 2 87.5797049974 35.4987469876 60.7646647007
526 30 2 87.3614018116 36.4896712954 60.9740990495
527 30 2 86.8911053005 37.3527866659 61.3016705073
528 30 2 86.2189713506 38.0113811815 61.73519009
529 30 2 85.4135527915 38.4073844538 62.2528119252
530 30 2 84.5555509889 38.5066605843 62.825024445
531 30 2 83.7304601302 38.3021195606 63.4173402862
532 30 2 83.0207746587 37.8143634918 63.993439722
533 30 2 82.4984701247 37.0898087812 64.5184811074
534 30 2 82.218442807 36.1964553958 64.9622766022
535 30 2 82.2135060639 35.2176888502 65.3020437121
536 30 2 82.4913994827 34.2446798405 65.5244818519
537 30 2 83.0340834378 33.3680742788 65.6269846585
538 30 2 83.7993833535 32.6697311605 65.6178775539
539 30 2 84.7248338046 32.2152613359 65.5156589052
540 30 2 85.7333720726 32.0480472561 65.3473139477
541 31 1 31.941920292 8.24805250223 69.994815088
542 31 1 27.8182795026 4.99253798397 71.7022116215
543 31 2 31.9635274413 8.74523295703 70.2392047656
544 31 2 31.7763057567 9.68334239868 70.6371353217
545 31 2 31.3051040435 10.5541719204 70.9422171153
546 31 2 30.5879866762 11.2740242923 71.1447146593
547 31 2 29.6854325838 11.7729634482 71.2442427468
548 31 2 28.6748227573 12.0011889711 71.2498015618
549 31 2 27.6433871789 11.933575268 71.178956336
550 31 2 26.6802540426 11.5719617009 71.0562363255
551 31 2 25.8683259573 10.9449849333 70.9108990342
552 31 2 25.2767235954 10.1054687753 70.7742634709
553 31 2 24.9544855289 9.12560943448 70.676855505
554 31 2 24.9260984939 8.09039502424 70.6456255152
555 31 2 25.1892654906 7.08985912473 70.7014919346
556 31 2 25.7151151483 6.21087446248 70.8574345915
557 31 2 26.4508332739 5.52923469365 71.1173116325
558 31 2 27.3244767243 5.10274601481 71.475507863
559 32 1 77.1498585679 91.1805146748 2.42616031314
560 32 1 79.3514105415 89.3842757149 7.16374256232
561 32 2 77.242838768 90.8549459844 1.987137195
562 32 2 77.6402996936 90.2593154825 1.23833873805
563 32 2 78.2944865059 89.7132755506 0.648991625991
564 32 2 79.1443344968 89.2490797248 0.280575232661
565 32 2 80.1109449645 88.8915216697 0.1744316874
566 32 2 81.1047766195 88.6556753023 0.347997650434
567 32 2 82.0338070341 88.5455208443 0.793215007908
568 32 2 82.8119202401 88.5535820359 1.47726534742
569 32 2 83.3667559697 88.661607577 2.34556126861
570 32 2 83.6463051004 88.842234684 3.32672187878
571 32 2 83.6236501471 89.0614831347 4.3390789705
572 32 2 83.2994187196 89.2818524745 5.29812086043
573 32 2 82.701726317 89.4657400831 6.12419540336
574 32 2 81.8836136755 89.578868552 6.74977007239
575 32 2 80.918212247 89.5934099797 7.12558736823
576 32 2 79.8920784625 89.4905224096 7.22515450859
577 33 1 39.9826409698 86.9833915271 66.4267403948
578 33 1 40.7034962849 88.0723982653 61.0590199289
579 33 2 40.2761061299 87.3034148456 66.7714792286
580 33 2 41.004144959 87.8402095455 67.2767127633
581 33 2 41.9057008313 88.268949485 67.5538933625
582 33 2 42.8976784272 88.5676183697 67.5689717495
583 33 2 43.8887407285 88.7260555344 67.311788564
584 33 2 44.7876341438 88.7468820602 66.79700036
585 33 2 45.5115060293 88.6452618703 66.0627437008
586 33 2 45.9934564857 88.4475195787 65.1671591124
587 33 2 46.1886361055 88.188741072 64.1830917308
588 33 2 46.0783338765 87.9095755248 63.1914516616
589 33 2 45.6716826405 87.6525303358 62.2738392411
590 33 2 45.0048266592 87.4580966923 61.5051073831
591 33 2 44.1376271614 87.3610589064 60.9465389359
592 33 2 43.1482061518 87.3873239183 60.6402609148
593 33 2 42.1258257996 87.5515599477 60.605404737
594 33 2 41.1627524295 87.8558595248 60.8363624442
595 34 1 48.636535616 72.854110982 73.5582198225