LAMMPS input file for bananas

4320 atoms

2 atom types

0 63.4960420787 xlo xhi
0 63.4960420787 ylo yhi
0 63.4960420787 zlo zhi

Masses

 1 1
 2 1

Atoms

1 1 1 41.6859811216 6.95021804138 50.9752584348
2 1 1 43.4361077332 2.6380070222 47.9987027019
3 1 2 41.4892919124 6.82280979744 51.477714485
4 1 2 40.9936969942 6.42760661679 52.2972571222
5 1 2 40.3821127333 5.84877403258 52.9008857683
6 1 2 39.7222772468 5.12508609535 53.2390320555
7 1 2 39.0863266222 4.30852003392 53.2863256233
8 1 2 38.5442199054 3.45951866989 53.0439065592
9 1 2 38.1573625211 2.641481216 52.5393214828
10 1 2 37.9730093321 1.91498460733 51.8240127449
11 1 2 38.0199574852 1.33226207559 50.968629595
12 1 2 38.3059216282 0.932442229656 50.0565886908
13 1 2 38.8168307399 0.737982587448 49.1764708929
14 1 2 39.5181106668 0.752622633193 48.4139473559
15 1 2 40.3578354642 0.961042973437 47.8439708321
16 1 2 41.2714603074 1.33026165881 47.5239439281
17 1 2 42.1877045804 1.81264040057 47.4884870105
18 1 2 43.0350489127 2.35022667326 47.7462826524
19 2 1 40.5948428603 53.7670554453 15.8690151485
20 2 1 41.4301185161 53.7841964507 21.3297854079
21 2 2 40.5070634164 54.2663554164 15.6445693954
22 2 2 40.1841774246 55.2193244388 15.3974971594
23 2 2 39.6916688213 56.1308422908 15.4020240234
24 2 2 39.0866077187 56.9288005628 15.66775635
25 2 2 38.436323088 57.5514414975 16.1804923217
26 2 2 37.8122659046 57.9529870443 16.9035163993
27 2 2 37.2834965817 58.1078114064 17.7809458445
28 2 2 36.9103902992 58.0127767633 18.7428242826
29 2 2 36.7391339665 57.6875192751 19.7114980389
30 2 2 36.7975164097 57.172659299 20.6086940635
31 2 2 37.0923954944 56.5260989522 21.3626543108
32 2 2 37.6090730493 55.8177444885 21.9146762934
33 2 2 38.3126345653 55.1231345305 22.2244636571
34 2 2 39.1511315598 54.5165549258 22.2737990856
35 2 2 40.060316542 54.0642677905 22.0682047606
36 2 2 40.9694990001 53.8184718946 21.6364390292
37 3 1 24.896424596 7.57874588002 14.828838372
38 3 1 25.4802831579 7.16238603733 9.35127096279
39 3 2 24.5580773774 7.98426518661 14.997529924
40 3 2 24.0566118717 8.87453957552 15.16897633
41 3 2 23.7532187661 9.86439573835 15.1291339962
42 3 2 23.6617062444 10.8629233188 14.8683311193
43 3 2 23.7765701414 11.778421584 14.3970358586
44 3 2 24.073495633 12.5267577014 13.744902192
45 3 2 24.5115734674 13.0390352211 12.9580670346
46 3 2 25.0370287338 13.2678738039 12.0949449823
47 3 2 25.5881223022 13.1917278118 11.2209039776
48 3 2 26.1007781799 12.8168501357 10.4023071963
49 3 2 26.5144238669 12.1767222612 9.70046422167
50 3 2 26.7775113775 11.3290025204 9.16604283919
51 3 2 26.8522157013 10.3502706893 8.83445080392
52 3 2 26.7178824519 9.32904794553 8.72260851798
53 3 2 26.3729104591 8.35772840007 8.82740678118
54 3 2 25.834897711 7.52415762067 9.12599018632
55 4 1 44.2354290039 34.4076802613 14.5154080955
56 4 1 46.0259796516 38.5845972077 11.3745030886
57 4 2 44.6033559555 34.0005679781 14.594597332
58 4 2 45.3109791237 33.2487139263 14.5083711877
59 4 2 46.0016267427 32.5770968303 14.1270755624
60 4 2 46.6287512059 32.0567852298 13.4871999829
61 4 2 47.1515948726 31.7450565731 12.6488028479
62 4 2 47.5389050177 31.6801765304 11.6900372652
63 4 2 47.7717824346 31.8779111809 10.7000276047
64 4 2 47.845404047 32.3300899761 9.77074605068
65 4 2 47.7694625195 33.0053504639 8.9886295829
66 4 2 47.5672827974 33.8519968922 8.42670147668
67 4 2 47.2736960996 34.8027121384 8.13791542676
68 4 2 46.931865147 35.7806934855 8.15032895949
69 4 2 46.5893499949 36.706652984 8.46454606429
70 4 2 46.293773062 37.506044337 9.05366214166
71 4 2 46.0884784735 38.1158575959 9.86571628545
72 4 2 46.0085813603 38.4903623484 10.8284273807
73 5 1 31.1392608477 44.4069528589 6.77301178888
74 5 1 35.4379013191 41.0827238959 7.76758856311
75 5 2 31.1667251982 44.9037976703 7.0174960029
76 5 2 31.2633374474 45.7051600563 7.66706078858
77 5 2 31.4266395707 46.2809731133 8.51276862885
78 5 2 31.6604436626 46.5828690561 9.4759116595
79 5 2 31.9621357518 46.5874469124 10.4670781126
80 5 2 32.3229140574 46.2984054586 11.3943019601
81 5 2 32.7285912478 45.7462060868 12.1714453717
82 5 2 33.1608875781 44.9852963296 12.7260499474
83 5 2 33.5990970398 44.0891471137 13.0059411077
84 5 2 34.0219746584 43.1435560807 12.9839836664
85 5 2 34.4096729161 42.238827362 12.6605551306
86 5 2 34.7455507994 41.4615405981 12.063511292
87 5 2 35.0176905837 40.8866594358 11.2456472457
88 5 2 35.2199841018 40.5706987926 10.2798852587
89 5 2 35.3526894869 40.5465736725 9.25262809974
90 5 2 35.4224076444 40.8205990516 8.25588365844
91 6 1 49.7750676057 34.4805981486 5.49345210604
92 6 1 46.5738987851 30.9289318854 8.26043168656
93 6 2 49.6886829642 35.0150124558 5.61312094078
94 6 2 49.3020071493 35.9583790747 5.79748809536
95 6 2 48.6518552153 36.7537517641 5.93215345428
96 6 2 47.7943127727 37.3279257995 6.02377849063
97 6 2 46.8043685223 37.6278581226 6.08294768787
98 6 2 45.769079236 37.625502074 6.12320379244
99 6 2 44.7796347645 37.3203637717 6.15981342863
100 6 2 43.9230463261 36.7395471266 6.20837558657
101 6 2 43.2742156669 35.9352833939 6.28339981599
102 6 2 42.8891079664 34.9801704335 6.39698371953
103 6 2 42.7996507617 33.9605556093 6.55771028858
104 6 2 43.0108238372 32.9686654576 6.76986558659
105 6 2 43.5002053307 32.0941994851 7.03304808581
106 6 2 44.2200154264 31.4161542982 7.34220526549
107 6 2 45.1014713573 30.9956232737 7.68809413563
108 6 2 46.0610567705 30.8702280608 8.05812371082
109 7 1 45.156084416 42.012772712 62.9630897582
110 7 1 44.7256237919 36.5341501451 62.3997164524
111 7 2 44.689380545 42.2690896683 63.1175912235
112 7 2 43.7231127916 42.6261140401 63.2285427345
113 7 2 42.7062200356 42.7858450041 63.1107923494
114 7 2 41.7239841063 42.721143281 62.7875644464
115 7 2 40.8585279555 42.4253260313 62.3008121304
116 7 2 40.1813303707 41.912775978 61.7073933194
117 7 2 39.7467108741 41.2176304598 61.0738882975
118 7 2 39.5868786435 40.390669904 60.4705310995
119 7 2 39.7089967318 39.4946893263 59.9648078668
120 7 2 40.0945291741 38.598774733 59.6153056658
121 7 2 40.7009304911 37.7720061158 59.4663724334
122 7 2 41.4655235957 37.0771609959 59.544074781
123 7 2 42.3112126425 36.5649924201 59.8538220929
124 7 2 43.1535101075 36.2696029563 60.3798734747
125 7 2 43.9082376004 36.2053363361 61.0867724945
126 7 2 44.4991984998 36.3654700614 61.9225789413
127 8 1 7.63576744283 37.195415697 8.26059042277
128 8 1 3.36878720218 35.035060467 11.0253211452
129 8 2 7.59685725398 37.738970191 8.15853113961
130 8 2 7.3111111606 38.6969762012 7.8864582345
131 8 2 6.76554127482 39.5086889506 7.54451390662
132 8 2 6.0018763729 40.1065751639 7.18009930113
133 8 2 5.08172400892 40.4425912831 6.84266366895
134 8 2 4.08095515085 40.4925625094 6.57919719966
135 8 2 3.08278874463 40.2583862712 6.42994799139
136 8 2 2.17020652969 39.7678592793 6.42475354416
137 8 2 1.41838947514 39.07214393 6.58032115157
138 8 2 0.887865235441 38.2411049904 6.89870507562
139 8 2 0.618991216421 37.3569416109 7.36711930621
140 8 2 0.628276105631 36.5066950927 7.95910297179
141 8 2 0.906875149588 35.7743153057 8.6369321771
142 8 2 1.42139632942 35.2330088825 9.35505843536
143 8 2 2.11694395413 34.9385666289 10.0642602911
144 8 2 2.92212225613 34.9242783417 10.7161297244
145 9 1 32.0021130568 27.7391646404 13.870996
146 9 1 30.2435937805 24.7841102739 18.1945656718
147 9 2 32.0985517056 28.2746004 13.9777186423
148 9 2 32.0633779238 29.2675537481 14.2714131518
149 9 2 31.758429826 30.1701853195 14.6784916638
150 9 2 31.2191814656 30.8993702569 15.1794413061
151 9 2 30.502462739 31.3877928999 15.7461931036
152 9 2 29.6812794919 31.5900824276 16.3446803907
153 9 2 28.838159232 31.486948288 16.9379438969
154 9 2 28.057628967 31.0869384799 17.4895004851
155 9 2 27.4185107938 30.425660426 17.9666684925
156 9 2 26.9867374752 29.5625354511 18.3435465766
157 9 2 26.8093428447 28.5753826874 18.6033745532
158 9 2 26.9101747982 27.5533260687 18.7400610428
159 9 2 27.2877216221 26.5886709216 18.7587386831
160 9 2 27.915249782 25.7684905824 18.6752963031
161 9 2 28.7432406129 25.1666898944 18.5149306986
162 9 2 29.703903813 24.8372689795 18.309850012
163 10 1 53.6255194684 24.0265744259 61.4632640959
164 10 1 51.9551431584 19.2219223769 63.6180617041
165 10 2 53.2215667713 24.3958177844 61.3745896986
166 10 2 52.362040383 24.9052223587 61.1004157053
167 10 2 51.4264518597 25.1373948677 60.7206525524
168 10 2 50.4888389123 25.0684154267 60.2852518072
169 10 2 49.6234237727 24.7018133462 59.849236255
170 10 2 48.8978480352 24.0682454448 59.4676847188
171 10 2 48.3670073068 23.2227017623 59.1907117723
172 10 2 48.0680476186 22.239493364 59.0588999303
173 10 2 48.0169796648 21.2054790867 59.0996006607
174 10 2 48.2072194704 20.2121485867 59.3244413717
175 10 2 48.6101885033 19.347283303 59.7282656044
176 10 2 49.1779185307 18.6869554136 60.2896030301
177 10 2 49.8474237957 18.2885940595 60.9726264139
178 10 2 50.5464420005 18.1857508322 61.7304171708
179 10 2 51.2000208215 18.3850416359 62.5092418696
180 10 2 51.7373496138 18.8655436653 63.2534498915
181 11 1 52.3889700371 59.4173868753 41.8480595355
182 11 1 56.2008105697 55.6975802023 43.3146546165
183 11 2 52.3945893754 59.886517232 42.1434689454
184 11 2 52.4031100113 60.616089869 42.8790647429
185 11 2 52.4242699956 61.0988572579 43.7955460108
186 11 2 52.4749820844 61.2936192062 44.8118855598
187 11 2 52.5694654384 61.1854264475 45.8379543849
188 11 2 52.7179495845 60.7869432273 46.782736684
189 11 2 52.9257420217 60.1372929904 47.5626257043
190 11 2 53.1927444569 59.2984923844 48.1090442748
191 11 2 53.5134617638 58.3497986072 48.3746954318
192 11 2 53.8775028491 57.3804853255 48.3378734112
193 11 2 54.2705277731 56.4817056187 48.0044420703
194 11 2 54.6755547965 55.7381836197 47.4073004133
195 11 2 55.0745082206 55.2204921359 46.6033839349
196 11 2 55.4498659393 54.9786201271 45.6684751022
197 11 2 55.7862565319 55.0374163449 44.6902959851
198 11 2 56.071860327 55.3943244359 43.7605126243
199 12 1 51.0735053996 52.8311977368 23.8696353846
200 12 1 56.0740293678 54.8693072142 25.0353372603
201 12 2 50.7223463906 52.8144316053 24.2983402193
202 12 2 50.2458329436 52.6769756813 25.2080054407
203 12 2 50.0439662806 52.4268595887 26.1929632072
204 12 2 50.1393578349 52.1032516574 27.1725694389
205 12 2 50.5275247476 51.7520188022 28.0666678343
206 12 2 51.1772984683 51.4215458759 28.8028959022
207 12 2 52.0336656855 51.1583255191 29.3232806101
208 12 2 53.0227826426 51.0027204806 29.5895224707
209 12 2 54.058705799 50.9852846605 29.5864864381
210 12 2 55.051225354 51.1239782038 29.3235814265
211 12 2 55.9140876294 51.4225304816 28.8339027132
212 12 2 56.5728568613 51.8701001684 28.171215392
213 12 2 56.9716998214 52.4422634003 27.4050538291
214 12 2 57.0784748661 53.1032399447 26.6143837912
215 12 2 56.8876615619 53.8091544728 25.880404927
216 12 2 56.4208638578 54.512035679 25.2791496363
217 13 1 46.3173300071 34.6241362198 53.3934021592
218 13 1 43.0394408047 32.3558189281 57.218081244
219 13 2 46.4491949007 35.1549940585 53.4838631614
220 13 2 46.46333008 36.1721890178 53.6802419348
221 13 2 46.1772480088 37.1405528458 53.9123594835
222 13 2 45.6192524619 37.9720884283 54.1781405133
223 13 2 44.8424314007 38.5912701802 54.4724413936
224 13 2 43.9198181473 38.9419280003 54.7875189857
225 13 2 42.9377345925 38.9923670262 55.113736409
226 13 2 41.9879231862 38.7382565362 55.4404414173
227 13 2 41.159184858 38.2030246829 55.7569373222
228 13 2 40.5292850503 37.4357230797 56.0534579677
229 13 2 40.1578656056 36.5065558777 56.3220578895
230 13 2 40.0810085723 35.5004808445 56.5573365225
231 13 2 40.3079474222 34.509465691 56.7569304481
232 13 2 40.8202254444 33.6241054603 56.9217288132
233 13 2 41.5733780249 32.9253650318 57.0557922874
234 13 2 42.5009854779 32.4771993886 57.1659829432
235 14 1 8.22221983359 12.5077192611 22.5433825559
236 14 1 12.0986945715 8.72334525426 21.461972345
237 14 2 7.70403707574 12.3117504303 22.5649333065
238 14 2 6.79222699648 11.8488194952 22.3983579786
239 14 2 6.02906563187 11.2834190235 21.9844050231
240 14 2 5.48672146856 10.6501026797 21.3694064635
241 14 2 5.21723609547 9.98961447799 20.6180190931
242 14 2 5.24778075212 9.34517507524 19.8073311807
243 14 2 5.57817974269 8.75854232298 19.019836081
244 14 2 6.1809264503 8.26620515107 18.3359131856
245 14 2 7.00369049156 7.89605769929 17.8265015568
246 14 2 7.97408749117 7.66485684098 17.5466340213
247 14 2 9.00627672427 7.57669483887 17.5304210751
248 14 2 10.0087852691 7.62262634627 17.7879418031
249 14 2 10.8928455192 7.78148375147 18.3043251976
250 14 2 11.5804861138 8.02180654903 19.0411056105
251 14 2 12.0116388186 8.30470888071 19.9397287947
252 14 2 12.1496135848 8.58742387755 20.9268889669
253 15 1 14.2297486276 42.8060560562 22.1583963366
254 15 1 19.0254251378 40.8829888158 24.1132084145
255 15 2 13.8279774767 42.4269596165 22.1109893776
256 15 2 13.2429477456 41.5960597583 21.9090100456
257 15 2 12.9220960688 40.6641493659 21.5895617194
258 15 2 12.8975457362 39.7054555014 21.1974477479
259 15 2 13.1744129622 38.7966464691 20.7840947595
260 15 2 13.7303405564 38.0098437039 20.4028652618
261 15 2 14.5175357216 37.4060480957 20.1041937926
262 15 2 15.4671262398 37.0295799211 19.9309899457
263 15 2 16.4954379903 36.9040391689 19.9147272766
264 15 2 17.5116216228 37.0301544636 20.072574572
265 15 2 18.4259332324 37.3857166542 20.4058309604
266 15 2 19.1579142768 37.9276031179 20.8998075005
267 15 2 19.6437251574 38.5957082728 21.5251660389
268 15 2 19.8419640281 39.3184220403 22.2405933039
269 15 2 19.7374404629 40.019156913 22.9965665003
270 15 2 19.3425600225 40.6233287009 23.7398671796
271 16 1 5.29406798277 17.6463217633 35.1734206491
272 16 1 8.1567829179 14.51571115 31.6347582677
273 16 2 4.75607203194 17.7034825591 35.0522819337
274 16 2 3.83226671261 17.8674171245 34.6127831267
275 16 2 3.08456801893 18.0773957096 33.9269947712
276 16 2 2.57669649195 18.2967312539 33.0509762541
277 16 2 2.35051306747 18.487883835 32.0581259329
278 16 2 2.42220356363 18.6158823322 31.0324910716
279 16 2 2.78080338687 18.6515119508 30.0611071577
280 16 2 3.38919692529 18.5739770726 29.2260648496
281 16 2 4.18750053749 18.3727967208 28.597027633
282 16 2 5.09852078645 18.0487598728 28.2248821798
283 16 2 6.03479041494 17.6138535476 28.1371001645
284 16 2 6.90654075232 17.0901702204 28.3352342943
285 16 2 7.62988388883 16.5078941532 28.7947767837
286 16 2 8.13445883447 15.9025501794 29.4673931742
287 16 2 8.36984473509 15.3117657105 30.2853278906
288 16 2 8.31015659851 14.771841098 31.1675799806
289 17 1 62.1615028708 46.6101577101 60.8344686208
290 17 1 58.1459754503 43.5853698217 63.1244880151
291 17 2 62.1532597938 47.1483448828 60.9673904282
292 17 2 61.9118282897 48.1387591131 61.1524322951
293 17 2 61.3925507344 49.0292916726 61.2561270013
294 17 2 60.6375710423 49.738143317 61.2875120618
295 17 2 59.7105167482 50.2000745318 61.2622158225
296 17 2 58.6906995266 50.3723519398 61.2010329785
297 17 2 57.665886145 50.2386433338 61.1280291928
298 17 2 56.7242987575 49.8105063143 61.0683475758
299 17 2 55.9465736913 49.1263348446 61.0459169575
300 17 2 55.3984116611 48.2478597437 61.0812708394
301 17 2 55.1245893242 47.2545220876 61.1896758199
302 17 2 55.1448780082 46.2362323667 61.3797400852
303 17 2 55.4522416074 45.2851753859 61.6526287958
304 17 2 56.0134779047 44.4874078653 62.0019578855
305 17 2 56.772244865 43.9150146005 62.4143759518
306 17 2 57.6541960615 43.6195381258 62.8707812006
307 18 1 22.8255087297 34.0896484144 49.7568325349
308 18 1 21.760968555 30.8195305057 45.4335150424
309 18 2 22.9768657733 34.6069112222 49.6267870771
310 18 2 23.4121573829 35.4645666034 49.2415618535
311 18 2 24.0004641262 36.1153084968 48.6903085769
312 18 2 24.676830336 36.5035309146 48.0082073264
313 18 2 25.3682739596 36.5975558174 47.2423646244
314 18 2 26.0004386786 36.3925204829 46.4475198026
315 18 2 26.5043712882 35.9108207303 45.6810556583
316 18 2 26.8228065978 35.200069601 44.9977681661
317 18 2 26.9153869997 34.3287575571 44.444871971
318 18 2 26.7623409575 33.380009759 44.0576968998
319 18 2 26.3662851286 32.4440094291 43.8564677418
320 18 2 25.7519858631 31.6097778922 43.8444608131
321 18 2 24.9641018168 30.9570605195 44.0077053297
322 18 2 24.0631134346 30.5490581514 44.3162568065
323 18 2 23.119810319 30.4266665096 44.7269264175
324 18 2 22.2088389476 30.6047486616 45.1872175415
325 19 1 10.040567191 14.4976054876 30.3552014786
326 19 1 10.2407549621 17.7828443963 25.9184097064
327 19 2 10.529813327 14.4034994323 30.5984376946
328 19 2 11.5123143897 14.1743106985 30.8342643201
329 19 2 12.5115159321 13.9088923947 30.7664453475
330 19 2 13.4448466782 13.6485931247 30.3995829489
331 19 2 14.2357392993 13.4342949057 29.7655363052
332 19 2 14.820609321 13.3026868823 28.9205177273
333 19 2 15.1546506781 13.2829212086 27.9399690538
334 19 2 15.2159196678 13.3939559078 26.9116853295
335 19 2 15.0073350597 13.6428268982 25.9278125214
336 19 2 14.5564120573 14.024006689 25.0764486602
337 19 2 13.9127543613 14.5199081957 24.4336139402
338 19 2 13.1435329244 15.1024877559 24.0563216819
339 19 2 12.3273634987 15.7358012345 23.9773817202
340 19 2 11.5471410201 16.3792802353 24.2024098754
341 19 2 10.8824839562 16.9914298018 24.7093160866
342 19 2 10.4024772962 17.5336105718 25.4503178613
343 20 1 33.1249882441 54.8305693469 48.3987362965
344 20 1 30.8922329415 54.1755071611 53.4090944028
345 20 2 32.775408729 55.0137610232 48.0093565841
346 20 2 31.9859313452 55.1808030505 47.3595316594
347 20 2 31.0744016018 55.1179269954 46.8710542907
348 20 2 30.1132857427 54.8434485797 46.5983494762
349 20 2 29.1795696538 54.3949705149 46.5761751222
350 20 2 28.3477418052 53.8259551155 46.8164539535
351 20 2 27.6830038263 53.2008513518 47.3071867882
352 20 2 27.2353275511 52.5892204986 48.0135462316
353 20 2 27.03490022 52.0593958109 48.8810510998
354 20 2 27.0893729925 51.6722541305 49.8405322344
355 20 2 27.3831635653 51.4756671243 50.8144370857
356 20 2 27.878876457 51.50013791 51.7238984213
357 20 2 28.5207115066 51.7560207784 52.4959228625
358 20 2 29.2395499091 52.2325774274 53.0700440366
359 20 2 29.9592542095 52.8989557298 53.4038339245
360 20 2 30.6036080285 53.7070018219 53.4767700617
361 21 1 35.3543396215 14.3151771192 24.5059374792
362 21 1 38.6714961894 9.93499978708 25.0790953155
363 21 2 35.043992938 14.3146337226 24.0465180317
364 21 2 34.6693472552 14.2705115541 23.0815600752
365 21 2 34.5868678414 14.1584125717 22.0548756175
366 21 2 34.7994240027 13.9699759558 21.0585014251
367 21 2 35.2829933407 13.7037988582 20.1817115648
368 21 2 35.9888513307 13.3655642677 19.5028803111
369 21 2 36.8480124311 12.9675230211 19.0823385407
370 21 2 37.7775179319 12.527377172 18.9568747341
371 21 2 38.6879974187 12.0666664959 19.1363818043
372 21 2 39.4918146477 11.6088051976 19.6029553838
373 21 2 40.1110553545 11.1769477684 20.3125257601
374 21 2 40.4846289318 10.7918785166 21.1988747122
375 21 2 40.5738366741 10.4701171332 22.1796711243
376 21 2 40.3658990621 10.222412966 23.1639752472
377 21 2 39.8751205809 10.0527652458 24.060527613
378 21 2 39.1415859054 9.9580585667 24.7860670922
379 22 1 47.289668262 51.9500956781 53.3704728394
380 22 1 52.7777898691 51.8711399715 52.744151609
381 22 2 47.000199484 51.8710648231 52.9042716612
382 22 2 46.5994904567 51.8925386141 51.9490642685
383 22 2 46.4216132189 52.1203094488 50.9541119348
384 22 2 46.4934203253 52.5203903218 50.0011014177
385 22 2 46.8190062698 53.0430886281 49.1678965903
386 22 2 47.3793342838 53.6275355117 48.5214413573
387 22 2 48.1339714863 54.2072338984 48.1116578972
388 22 2 49.024774233 54.7161195272 47.9668963886
389 22 2 49.9811877545 55.0945825305 48.0913509679
390 22 2 50.9266770343 55.2949007144 48.4646774445
391 22 2 51.7857027716 55.2855893094 49.0438476195
392 22 2 52.4906065861 55.0542707223 49.7670711912
393 22 2 52.9877778993 54.6088027217 50.5594277757
394 22 2 53.2425403944 53.9765622224 51.3396956998
395 22 2 53.242312671 53.2019499536 52.0277551393
396 22 2 52.9977550052 52.3423434505 52.551890827
397 23 1 25.7335158607 45.8758842143 12.753891428
398 23 1 23.3673003646 44.2930286166 17.4881900502
399 23 2 25.7393845978 46.4234751721 12.6673391959
400 23 2 25.5212667008 47.4302381213 12.5564204939
401 23 2 25.0267045012 48.3404065733 12.5351688854
402 23 2 24.3041683216 49.0777269478 12.623203797
403 23 2 23.4229077034 49.5817003046 12.8301834813
404 23 2 22.4666394966 49.8130966605 13.1549246925
405 23 2 21.5259172923 49.7575306976 13.5855105366
406 23 2 20.6898777049 49.4267729461 14.1003766642
407 23 2 20.0381158082 48.8576769323 14.6702768032
408 23 2 19.6334302572 48.1088200782 15.2609484784
409 23 2 19.5160993579 47.2551645258 15.8362359449
410 23 2 19.7002098083 46.3812245384 16.361385687
411 23 2 20.1723727327 45.5733632513 16.8062141087
412 23 2 20.8929440426 44.9119209029 17.1478586877
413 23 2 21.7996378889 44.4638920368 17.3728618331
414 23 2 22.8132038508 44.2768191278 17.4783975089
415 24 1 19.5083996156 30.9170612845 61.7026508355
416 24 1 15.1672595173 31.2677608835 58.3041947891
417 24 2 19.4566706523 31.1985594981 62.177481814
418 24 2 19.2996826703 31.9016306594 62.9221265124
419 24 2 19.0615201108 32.7752228815 63.4256791272
420 24 2 18.7453652643 33.7368619856 63.6464649004
421 24 2 18.3615092099 34.696048555 63.5685825158
422 24 2 17.9264138107 35.5625067148 63.2033534615
423 24 2 17.4612112594 36.254412537 62.5882901066
424 24 2 16.9897779347 36.7058520724 61.7836765487
425 24 2 16.5365581342 36.8728292315 60.8670738802
426 24 2 16.1243360409 36.7372759097 59.9262507014
427 24 2 15.7721590067 36.3086988474 59.0511832471
428 24 2 15.4936014369 35.6233131155 58.3258542941
429 24 2 15.2955275191 34.7407412092 57.8205983547
430 24 2 15.1774655713 33.738578616 57.5856908741
431 24 2 15.1316510343 32.705321195 57.6467657584
432 24 2 15.1437341906 31.732299016 58.002478912
433 25 1 34.8737401919 22.8568501119 26.8656421132
434 25 1 34.8819477992 26.5593109614 30.9656064246
435 25 2 34.8722894797 22.3271287094 27.029271937
436 25 2 35.0497365923 21.4062419857 27.4696469765
437 25 2 35.436562628 20.6492783739 28.0619490276
438 25 2 35.9858901335 20.125906445 28.7674779972
439 25 2 36.6360300806 19.8845035119 29.537213461
440 25 2 37.3161046567 19.9477461677 30.3162827446
441 25 2 37.9525075876 20.3105433739 31.0489624208
442 25 2 38.475613153 20.9405004957 31.6837573509
443 25 2 38.8261223847 21.7808719857 32.1780943296
444 25 2 38.9604680087 22.7557335895 32.5022025181
445 25 2 38.8547854863 23.7769026383 32.641826977
446 25 2 38.5070882029 24.7519756632 32.5995279658
447 25 2 37.9374485423 25.5927507249 32.3944475819
448 25 2 37.1861683429 26.2232667845 32.06056501
449 25 2 36.3101054927 26.586727349 31.6435994098
450 25 2 35.3774914849 26.6506773201 31.1968427369
451 26 1 46.4353046524 41.3661939765 42.420506818
452 26 1 49.3133095917 45.7923980366 44.046482294
453 26 2 46.3841430739 41.3096538385 41.8713553874
454 26 2 46.2186517447 41.4283734065 40.8554969842
455 26 2 45.9904787368 41.833098491 39.9294382951
456 26 2 45.7377085022 42.4926544429 39.171452038
457 26 2 45.5006674645 43.3526394609 38.6444915779
458 26 2 45.3182483732 44.3403831696 38.3904528957
459 26 2 45.224365333 45.3715703309 38.4263558818
460 26 2 45.2448626245 46.3579259517 38.7427930186
461 26 2 45.3951590667 47.2152613142 39.3047868503
462 26 2 45.6788426328 47.8711475522 40.0549780848
463 26 2 46.0873434163 48.271517349 40.9188537395
464 26 2 46.600714755 48.3855930282 41.8115388011
465 26 2 47.1894513157 48.2086918573 42.6455323557
466 26 2 47.8171784268 47.762652866 43.3386830632
467 26 2 48.4439675322 47.0938462768 43.8216770329
468 26 2 49.0299755725 46.2689469834 44.0443555989
469 27 1 18.7251138487 25.1328646637 12.8328707929
470 27 1 17.8744607306 23.8378878081 18.1354565091
471 27 2 18.475305222 25.5977427965 12.6629721179
472 27 2 17.8184978301 26.3684086063 12.4435905538
473 27 2 16.9699712418 26.9597183776 12.3819026741
474 27 2 16.0090871312 27.3291279952 12.4988995615
475 27 2 15.0254482603 27.4543189498 12.7992856594
476 27 2 14.1107314268 27.3352326107 13.2710499751
477 27 2 13.3503313687 26.9940755694 13.8865608491
478 27 2 12.8155772625 26.4732955686 14.6050845075
479 27 2 12.5572312592 25.8317125033 15.3764978365
480 27 2 12.60086165 25.1391571454 16.14585697
481 27 2 12.9445123851 24.4701062546 16.8584052765
482 27 2 13.5588813618 23.8968942216 17.4645642794
483 27 2 14.3899912337 23.4831199812 17.9244526029
484 27 2 15.3641093007 23.2778501396 18.2115210525
485 27 2 16.3944680482 23.3111466841 18.3149725035
486 27 2 17.3891737738 23.591326914 18.2407460297
487 28 1 28.4182693581 61.5391594422 28.2754948235
488 28 1 30.927171665 56.7200639438 27.2756354067
489 28 2 28.7381290448 61.9871617639 28.2094244919
490 28 2 29.4847136973 62.7053901846 28.2238918131
491 28 2 30.373014243 63.2076983855 28.4029410325
492 28 2 31.3324868845 63.4434171004 28.7148688269
493 28 2 32.286100678 63.386175982 29.1158603459
494 28 2 33.1573586983 63.0363071893 29.5539828187
495 28 2 33.8772705284 62.4208151112 29.9739190874
496 28 2 34.3906405525 61.5909149894 30.3220096179
497 28 2 34.661098888 60.6173647857 30.5511434232
498 28 2 34.6744164036 59.5840157827 30.6250521037
499 28 2 34.4398016666 58.5801697641 30.5216156153
500 28 2 33.9890616061 57.692439395 30.2348784517
501 28 2 33.3737023972 56.9968537098 29.7755924736
502 28 2 32.6602348102 56.5519282682 29.1702369046
503 28 2 31.9241119317 56.3933316189 28.4586048215
504 28 2 31.2428518178 56.5306342063 27.6901761209
505 29 1 41.1039143198 19.6737884289 35.0676575317
506 29 1 37.4071743797 16.4205465491 37.5713592208
507 29 2 41.1526688326 20.1817856883 35.2843217188
508 29 2 41.0094289028 21.1331222798 35.6688877382
509 29 2 40.572613205 22.007676826 36.0121025442
510 29 2 39.8803298281 22.7221381855 36.3014789479
511 29 2 38.9939720576 23.2077872832 36.5294369871
512 29 2 37.9926225408 23.41676067 36.6939948191
513 29 2 36.9658451157 23.3264131483 36.7989493608
514 29 2 36.005521306 22.9413818214 36.8535302097
515 29 2 35.1974755661 22.2931634339 36.8715583907
516 29 2 34.6136526111 21.4372435272 36.8701866067
517 29 2 34.3055598488 20.4480390814 36.8683358156
518 29 2 34.2995726168 19.4121156059 36.8849706354
519 29 2 34.594530141 18.420296925 36.9373707704
520 29 2 35.1618413373 17.5593868285 37.0395560115
521 29 2 35.9480908122 16.9042571389 37.2010083707
522 29 2 36.8799075332 16.5110233446 37.4258078203
523 30 1 27.7522517236 20.8673350666 60.2643526515
524 30 1 24.0876624882 17.9609196476 63.2039999448
525 30 2 27.746642768 21.413665862 60.3585481379
526 30 2 27.5048795946 22.4113785123 60.4984411205
527 30 2 26.9802717859 23.2994470842 60.5962719429
528 30 2 26.2175625896 23.9975833661 60.6620779082
529 30 2 25.2831975588 24.442810967 60.7088152996
530 30 2 24.2592682169 24.5952054462 60.7511784501
531 30 2 23.2360296347 24.4415333195 60.8042603929
532 30 2 22.3036739225 23.9964582554 60.8821771719
533 30 2 21.5441094596 23.3012045218 60.9967812022
534 30 2 21.0234951649 22.4197995033 61.1565809538
535 30 2 20.786210288 21.4332377766 61.3659654278
536 30 2 20.8508093596 20.4320986716 61.62480411
537 30 2 21.208330995 19.5082902068 61.9284588677
538 30 2 21.823114701 18.74667192 62.2682067023
539 30 2 22.6360512342 18.2173201474 62.6320348281
540 30 2 23.5699702505 17.9691407534 63.0057356048
541 31 1 32.3989281666 51.3730310933 27.6506892914
542 31 1 36.9072191147 49.274417974 25.2446288673
543 31 2 31.952125221 51.0451164284 27.6358337065
544 31 2 31.1678850584 50.418749769 27.3787691494
545 31 2 30.5188930395 49.8104407231 26.8475258198
546 31 2 30.0721065704 49.2582879527 26.0932319909
547 31 2 29.8760525622 48.7952716252 25.1873463924
548 31 2 29.956404332 48.4462473597 24.2151449389
549 31 2 30.3136415493 48.2256807033 23.2679480576
550 31 2 30.9230065148 48.1363286355 22.4347970761
551 31 2 31.7367607592 48.1689882766 21.794338343
552 31 2 32.6885362763 48.3033357061 21.4076548233
553 31 2 33.6993847901 48.5097784329 21.3126985497
554 31 2 34.6849736787 48.7521526726 21.5208313962
555 31 2 35.5632726675 48.9910195792 22.0157894735
556 31 2 36.2620306697 49.187259991 22.755165539
557 31 2 36.7253612794 49.3056400371 23.6742743041
558 31 2 36.9188366682 49.3180226111 24.6920483247
559 32 1 24.0198340887 52.2671582785 14.1576311535
560 32 1 25.4483537589 50.0079039501 18.9922037813
561 32 2 24.134832546 52.8073519694 14.1091778848
562 32 2 24.2388891516 53.8315932971 14.2255906701
563 32 2 24.2052424874 54.7937582957 14.6084175614
564 32 2 24.0538770532 55.6073576791 15.2317910929
565 32 2 23.8155070997 56.1994435201 16.0479186157
566 32 2 23.5287771073 56.5172582587 16.9914384695
567 32 2 23.2367394444 56.5330434129 17.9853775237
568 32 2 22.9829302597 56.2465696902 18.9481670724
569 32 2 22.8074012781 55.6851578865 19.8010776038
570 32 2 22.7430691932 54.9011886693 20.4753947847
571 32 2 22.8127153986 53.9673282193 20.9186825887
572 32 2 23.0269095251 52.9699049025 21.0995626994
573 32 2 23.3830460466 52.0010406703 21.0105745606
574 32 2 23.8655817671 51.1502543899 20.6688553853
575 32 2 24.4474525415 50.4963024389 20.1145781454
576 32 2 25.0925401001 50.1000002715 19.407289912
577 33 1 23.2629715634 53.154684005 25.4468556599
578 33 1 25.7596489601 49.9418745952 21.7102196414
579 33 2 22.9644663062 53.5709882485 25.2348014773
580 33 2 22.6029810138 54.3919233956 24.7162999066
581 33 2 22.5183453996 55.1956524512 24.0679894647
582 33 2 22.7104941486 55.900638982 23.3334672657
583 33 2 23.1541337908 56.4343466718 22.564188395
584 33 2 23.8010481334 56.7398508129 21.8147759156
585 33 2 24.584493038 56.7810268411 21.1380421221
586 33 2 25.4252799706 56.5458429935 20.5801748412
587 33 2 26.2389938242 56.0474569709 20.1765275346
588 33 2 26.9436871309 55.3230166491 19.9483969256
589 33 2 27.4673493542 54.430274149 19.9010818595
590 33 2 27.754470457 53.4423218851 20.0234003283
591 33 2 27.771100493 52.4409303876 20.2887086806
592 33 2 27.5079440538 51.5090951368 20.6573301193
593 33 2 26.9812075205 50.7234717471 21.0801711357
594 33 2 26.231121895 50.1473890124 21.5031962513