LAMMPS input file for bananas

4320 atoms

2 atom types

0 100.793683992 xlo xhi
0 100.793683992 ylo yhi
0 100.793683992 zlo zhi

Masses

 1 1
 2 1

Atoms

1 1 1 71.4182517368 40.484676869 67.8896913569
2 1 1 75.9919025297 39.3397363704 70.7687225725
3 1 2 71.503320977 40.7588344484 67.4153682244
4 1 2 71.7889248952 41.414614918 66.6658134307
5 1 2 72.2293286763 42.19674281 66.148347991
6 1 2 72.8005838988 43.025778975 65.9037738323
7 1 2 73.4668153818 43.8180086999 65.9480195705
8 1 2 74.1834911123 44.49307208 66.27068866
9 1 2 74.9014812188 44.9812886101 66.8360070108
10 1 2 75.5715360282 45.2300083759 67.5860837014
11 1 2 76.1487750413 45.2084109528 68.4461875813
12 1 2 76.5967776709 44.9103146058 69.3315588159
13 1 2 76.8909028806 44.3547397377 70.1551345186
14 1 2 77.0205351496 43.5841752302 70.8354843005
15 1 2 76.990052049 42.660705696 71.3042324325
16 1 2 76.8184252378 41.6603526326 71.5122901104
17 1 2 76.5374912472 40.6661452653 71.434329768
18 1 2 76.1890496654 39.760552656 71.0710936174
19 2 1 87.7136477886 73.8806368855 71.2126134072
20 2 1 84.0070057252 72.2003835633 74.9483254477
21 2 2 88.1934520237 74.0606228724 71.4242133329
22 2 2 88.9500082956 74.5277970559 71.9560224159
23 2 2 89.4666013519 75.1166528027 72.6341304714
24 2 2 89.698818281 75.7612766473 73.4112954525
25 2 2 89.6281662954 76.3906720114 74.2312465387
26 2 2 89.2637582993 76.9352303518 75.0338130702
27 2 2 88.6414822724 77.3330757933 75.7604089429
28 2 2 87.8207301763 77.5357049494 76.3593725753
29 2 2 86.8789845354 77.5124078761 76.7906757234
30 2 2 85.9047561128 77.2530672015 77.0295719481
31 2 2 84.9895163899 76.769080297 77.0688521873
32 2 2 84.2193601862 76.0923204375 76.9195018425
33 2 2 83.6671583459 75.2722316373 76.6096994885
34 2 2 83.3859157555 74.3713219608 76.1822484721
35 2 2 83.4039400904 73.4594660792 75.6906755012
36 2 2 83.7222616453 72.607536381 75.1943518285
37 3 1 91.4550498657 73.3771450052 65.0847468622
38 3 1 95.8468968733 72.8568824758 68.3951845709
39 3 2 91.5401142831 73.6828963275 64.6301462002
40 3 2 91.7859875822 74.4099000674 63.934113231
41 3 2 92.1397987627 75.2758726001 63.4887378476
42 3 2 92.5871688307 76.1967612071 63.3297592106
43 3 2 93.1051911495 77.0835077161 63.4668121826
44 3 2 93.6645193187 77.850165916 63.8825491365
45 3 2 94.23204202 78.4217353241 64.5342211448
46 3 2 94.7739010254 78.7409972796 65.3575744306
47 3 2 95.2585772842 78.7737302716 66.2727069274
48 3 2 95.6597638002 78.5118291384 67.1913511387
49 3 2 95.9587634441 77.9740438316 68.0249194849
50 3 2 96.1461931469 77.2042704074 68.692578824
51 3 2 96.2228391416 76.2675500192 69.1286181766
52 3 2 96.1995852999 75.2441405897 69.2884381058
53 3 2 96.0964210967 74.2222015164 69.1526158372
54 3 2 95.9406196228 73.2897581772 68.7286755923
55 4 1 19.7059832449 26.3539478015 70.800669337
56 4 1 17.0950138452 23.0062933017 74.3353601587
57 4 2 19.666697279 26.8943086624 70.9183483112
58 4 2 19.3632698877 27.856890665 71.1524801493
59 4 2 18.7871611417 28.6809545208 71.4024151119
60 4 2 17.9920400967 29.2912968145 71.6645502288
61 4 2 17.0515381941 29.63219428 71.9341705182
62 4 2 16.052537952 29.6724828272 72.2058787448
63 4 2 15.0872538557 29.4083980654 72.4740873635
64 4 2 14.2448272539 28.8639184175 72.7335278091
65 4 2 13.6032013631 28.0885795508 72.9797307119
66 4 2 13.2220169518 27.1529593335 73.2094332687
67 4 2 13.1371762434 26.1422448503 73.4208766391
68 4 2 13.3575705252 25.1484678277 73.6139662584
69 4 2 13.8642697308 24.2621161879 73.7902804575
70 4 2 14.6122478653 23.5638863165 73.9529266017
71 4 2 15.5344870041 23.1173278027 74.1062578634
72 4 2 16.5480857981 22.9630510644 74.2554764413
73 5 1 24.598662828 81.0055764442 71.7478178845
74 5 1 22.9539123292 76.3410976296 69.2870407216
75 5 2 24.6124496867 81.4512136958 71.4182743357
76 5 2 24.7610398336 82.1420971468 70.6606127777
77 5 2 25.0436825568 82.5913865263 69.7708363138
78 5 2 25.4190115556 82.7554200846 68.8191687533
79 5 2 25.837212423 82.616536378 67.8814751137
80 5 2 26.2445630959 82.1846840618 67.0323467268
81 5 2 26.5883304771 81.4965150967 66.3383024384
82 5 2 26.8215769169 80.6120440214 65.851725593
83 5 2 26.9074384537 79.6091777869 65.6060894326
84 5 2 26.8224848662 78.5766147466 65.6129060994
85 5 2 26.5588552747 77.6057600384 65.8606773352
86 5 2 26.1249746402 76.7823942507 66.315942517
87 5 2 25.5447858507 76.178854751 66.9263285032
88 5 2 24.855567392 75.8474423281 67.6253233052
89 5 2 24.1045355125 75.8156541151 68.338338478
90 5 2 23.3445405887 76.0836772993 68.9895076571
91 6 1 30.0829025008 27.8787414688 6.6165981324
92 6 1 26.6815085231 24.332353036 9.14080873241
93 6 2 30.0065298893 28.4112649116 6.75064139104
94 6 2 29.6388306342 29.358828826 6.95156400568
95 6 2 29.0058459418 30.167640498 7.08796074198
96 6 2 28.1613478231 30.7627510918 7.16616764538
97 6 2 27.1783871724 31.0886900539 7.19782460905
98 6 2 26.1426353738 31.1145211054 7.19881442876
99 6 2 25.1445755835 30.8366620016 7.1878151285
100 6 2 24.2712554318 30.2792110434 7.18459750847
101 6 2 23.5983528644 29.4917505823 7.20822308954
102 6 2 23.1832782997 28.544827721 7.27530670654
103 6 2 23.059941823 27.5235241339 7.39850211047
104 6 2 23.2356623724 26.5197010996 7.58534861294
105 6 2 23.6905006376 25.6236265911 7.83758389803
106 6 2 24.3790764744 24.9157475915 8.15098563708
107 6 2 25.2347051836 24.4593575659 8.51575634261
108 6 2 26.1754756434 24.2948274317 8.91741638316
109 7 1 5.34856021583 68.5934714239 5.06054450312
110 7 1 6.68938127378 63.3228143104 6.03026794014
111 7 2 4.82574529616 68.6748294071 4.8949334335
112 7 2 3.89996978934 68.6578442509 4.43006654221
113 7 2 3.10685782437 68.4124371961 3.8102288218
114 7 2 2.5091801433 67.9481796514 3.10262983019
115 7 2 2.15189417556 67.2945906627 2.38247833063
116 7 2 2.05804628841 66.4984463311 1.72612721392
117 7 2 2.22667117219 65.6195162959 1.20411413649
118 7 2 2.63287982567 64.7251158923 0.874732201514
119 7 2 3.23012812204 63.8839705382 0.778716698423
120 7 2 3.95445918164 63.1599515958 0.935532190101
121 7 2 4.7303328706 62.6062546684 1.34159837002
122 7 2 5.47751108215 62.2605509624 1.9706163976
123 7 2 6.11837122558 62.1415536582 2.77596596725
124 7 2 6.58498131793 62.2473122537 3.69495462462
125 7 2 6.82529180268 62.555390347 4.65453201624
126 7 2 6.80787972769 63.024910655 5.57794823398
127 8 1 56.7042933171 49.9123835612 24.6206347645
128 8 1 61.447290207 49.3355586869 21.84768604
129 8 2 56.2947817007 49.5772222021 24.4552603789
130 8 2 55.5851354301 49.0324473851 23.9326969083
131 8 2 55.0125704361 48.6233698777 23.172253004
132 8 2 54.6388145871 48.3710303926 22.2394714857
133 8 2 54.5074748295 48.282183391 21.2156032864
134 8 2 54.6400625308 48.3486814311 20.1902016464
135 8 2 55.034032776 48.5482177857 19.2529595751
136 8 2 55.6630163301 48.8463596408 18.4855345728
137 8 2 56.4792231228 49.1996865546 17.9541057679
138 8 2 57.4177981862 49.5597481149 17.7033418661
139 8 2 58.4027330114 49.8774800641 17.7523297174
140 8 2 59.3537935215 50.1076763758 18.0928346007
141 8 2 60.1938331924 50.2131096629 18.6900507964
142 8 2 60.8558247531 50.1679243545 19.4857740351
143 8 2 61.2889695419 49.9599933622 20.4037066609
144 8 2 61.4633276686 49.5920234316 21.356411959
145 9 1 88.7800867459 46.0343770869 49.3354534788
146 9 1 84.6672530356 48.9922147786 51.5385844606
147 9 2 89.2557916024 46.3107273193 49.2667728659
148 9 2 90.0062838411 46.98597099 49.0338406955
149 9 2 90.5175277872 47.8219789947 48.6974328256
150 9 2 90.7434155758 48.7534577029 48.3040219282
151 9 2 90.6638487933 49.7064115849 47.9052763487
152 9 2 90.2865703936 50.604887706 47.5533506746
153 9 2 89.6464589489 51.3778986341 47.2961319844
154 9 2 88.802349561 51.9658927539 47.1728750677
155 9 2 87.8316711989 52.3261822377 47.2106244568
156 9 2 86.8233892553 52.4368339268 47.4217493895
157 9 2 85.8698965891 52.2986684804 47.8028163861
158 9 2 85.0585921625 51.9351855742 48.3349022022
159 9 2 84.4639148603 51.3904219686 48.9853186313
160 9 2 84.1405585834 50.7249376749 49.7105919482
161 9 2 84.1184870467 50.0102960726 50.4604254222
162 9 2 84.4002026661 49.3225410984 51.1822837299
163 10 1 32.8175730193 32.8545447044 25.2273882324
164 10 1 30.2275922105 29.3204528459 28.591936524
165 10 2 32.730304333 33.3904363759 25.3395750448
166 10 2 32.3409214136 34.3276653315 25.5479805104
167 10 2 31.6894638048 35.1064505217 25.7542488371
168 10 2 30.8351612069 35.6557949347 25.9587917379
169 10 2 29.8557320987 35.9256144721 26.1621781937
170 10 2 28.8402999061 35.891302981 26.3650825925
171 10 2 27.8812696399 35.5559750388 26.5682232602
172 10 2 27.065905426 34.9501820678 26.7722969877
173 10 2 26.4683766137 34.1291276549 26.9779155197
174 10 2 26.1429974376 33.1676358921 27.1855497964
175 10 2 26.1192764204 32.1533313602 27.3954870281
176 10 2 26.3992267498 31.1786523832 27.6078045168
177 10 2 26.9571827819 30.3324255214 27.8223626107
178 10 2 27.7421393962 29.6917692681 28.0388174327
179 10 2 28.6824009757 29.3150649052 28.2566522239
180 10 2 29.692116271 29.2366352052 28.4752244451
181 11 1 47.8292857975 9.56522823081 44.0349455579
182 11 1 42.8392273831 11.9153687955 43.728111062
183 11 2 48.2547870608 9.92058145204 44.0423178825
184 11 2 48.9423281105 10.6757498468 43.8677956443
185 11 2 49.4293490511 11.5003477763 43.4724491263
186 11 2 49.6644591384 12.3334552377 42.9031467323
187 11 2 49.619228629 13.1133766071 42.2226124792
188 11 2 49.2907800759 13.7832640309 41.5037088704
189 11 2 48.7020505996 14.2962989552 40.8227956739
190 11 2 47.899701231 14.6199595126 40.2527699327
191 11 2 46.9498638835 14.7389848028 39.856421595
192 11 2 45.9321136054 14.6567658833 39.6807103777
193 11 2 44.9322155272 14.3950366834 39.7524855139
194 11 2 44.0343075989 13.9918930146 40.076038517
195 11 2 43.3132316411 13.4983202394 40.6327120208
196 11 2 42.827711713 12.9735460916 41.3826003488
197 11 2 42.6150015711 12.4796422267 42.2681868092
198 11 2 42.687489089 12.0758665564 43.2195861886
199 12 1 32.9004181423 6.60207278675 5.14873083359
200 12 1 34.6990029489 2.81443254132 1.55194544576
201 12 2 32.3495084034 6.62691577998 5.20585240002
202 12 2 31.3230027601 6.68433341289 5.07763621203
203 12 2 30.3786874781 6.7357306097 4.65446132212
204 12 2 29.5977725986 6.75786048435 3.97392313009
205 12 2 29.0465746529 6.73014378896 3.09707501287
206 12 2 28.7704720879 6.63654465727 2.10286347234
207 12 2 28.7897691416 6.46703223102 1.08093237279
208 12 2 29.0978451663 6.21849494584 0.123452142166
209 12 2 29.6617580831 5.89502414203 -0.683281315982
210 12 2 30.4252469641 5.50754114986 -1.26671226352
211 12 2 31.3138600657 5.07280183945 -1.57463838934
212 12 2 32.2417409058 4.61186936804 -1.57996891043
213 12 2 33.1194538533 4.14819432947 -1.28319382442
214 12 2 33.862135946 3.70547729527 -0.712339247565
215 12 2 34.3972319235 3.30550857086 0.0795870908585
216 12 2 34.671107445 2.96618206751 1.01942736136
217 13 1 19.7352514285 7.58712424161 89.7132517921
218 13 1 20.7862323234 3.26805772482 92.9933576812
219 13 2 19.2158437716 7.77926978768 89.7392779933
220 13 2 18.1884817107 7.91240197953 89.7551848001
221 13 2 17.1668202261 7.7406046603 89.743205523
222 13 2 16.2400975647 7.27775107246 89.7231636585
223 13 2 15.4888985537 6.56424345947 89.7156175863
224 13 2 14.9778095084 5.66333050923 89.7399867279
225 13 2 14.7495313628 4.65534240522 89.8127815188
226 13 2 14.8209875929 3.63036894503 89.9460985254
227 13 2 15.1817816878 2.68004809606 90.1465178764
228 13 2 15.7951447634 1.88921343971 90.414503501
229 13 2 16.6012869482 1.32816181722 90.7443608429
230 13 2 17.5228470699 1.04624596041 91.1247559046
231 13 2 18.47194392 1.06737612216 91.53974831
232 13 2 19.3581863906 1.38784072072 91.9702442281
233 13 2 20.0969123827 1.97664464045 92.3957367238
234 13 2 20.6169055299 2.77833435384 92.7961749108
235 14 1 77.6354113187 46.5095280363 54.1564074033
236 14 1 75.0269635994 43.4465528286 57.9421932443
237 14 2 77.9698594987 46.9007413509 54.3625096727
238 14 2 78.4060168195 47.6876200245 54.8763566887
239 14 2 78.5689243261 48.4760538124 55.5284941876
240 14 2 78.4513606217 49.1851908651 56.2746533041
241 14 2 78.0716685108 49.7414070184 57.0619953536
242 14 2 77.4720831012 50.0850164395 57.8339279371
243 14 2 76.7148821876 50.175711831 58.5352631875
244 14 2 75.8767097962 49.9962383332 59.1172479958
245 14 2 75.0415902873 49.5539662587 59.5420077268
246 14 2 74.2932697589 48.8802193078 59.7859983909
247 14 2 73.7075828142 48.0274194972 59.8421526158
248 14 2 73.3455404396 47.0643090332 59.7205238184
249 14 2 73.2477690168 46.0696846434 59.4473698632
250 14 2 73.4308073367 45.1252154653 59.0627597278
251 14 2 73.8855991326 44.3079991231 58.6169213224
252 14 2 74.5783185347 43.6835344851 58.1656633509
253 15 1 5.6533431397 36.0849472727 32.0630041753
254 15 1 1.70871398759 39.1555936453 29.7116167619
255 15 2 6.11050553246 36.0174291865 31.7566947848
256 15 2 6.81130441826 35.8294434071 31.0171055207
257 15 2 7.25848297445 35.5910558444 30.113417123
258 15 2 7.4131108551 35.3413011777 29.1198564373
259 15 2 7.26292292643 35.1202501671 28.118841928
260 15 2 6.82343720098 34.9653573114 27.1934714554
261 15 2 6.13654041225 34.9080469703 26.4199481282
262 15 2 5.26667015088 34.9708491181 25.8606345938
263 15 2 4.29494155049 35.1653457968 25.5583688492
264 15 2 3.31175386008 35.4911154439 25.5325596727
265 15 2 2.40855079405 35.9357713168 25.777417565
266 15 2 1.66948568208 36.4760905109 26.2624824471
267 15 2 1.16375111804 37.0801306658 26.935400015
268 15 2 0.939272240002 37.7101414258 27.7266936942
269 15 2 1.01833848198 38.3260052839 28.5560972443
270 15 2 1.39557195159 38.8888941853 29.3398708119
271 16 1 9.44989104001 17.38695753 63.6213488033
272 16 1 6.17146476409 20.3195509441 66.9634750849
273 16 2 9.74653584367 17.6877436865 63.2623068329
274 16 2 10.0927255847 18.348124715 62.5429324022
275 16 2 10.1453723526 19.0957333468 61.8275586099
276 16 2 9.90436457834 19.87771138 61.1920465175
277 16 2 9.39635651962 20.6380679335 60.7049780059
278 16 2 8.6723387964 21.3227828665 60.4214047205
279 16 2 7.80299073222 21.8847305695 60.3778302605
280 16 2 6.87223812278 22.2879753381 60.5888829739
281 16 2 5.96960362394 22.511046816 61.0459826221
282 16 2 5.18204700095 22.548896961 61.7181224463
283 16 2 4.58603897823 22.4133601601 62.5546953503
284 16 2 4.24059113727 22.1320745573 63.4901066021
285 16 2 4.18187716868 21.7459629099 64.4497526185
286 16 2 4.41993573696 21.3055025895 65.3568208824
287 16 2 4.9377554831 20.8661247036 66.1392911982
288 16 2 5.69282556444 20.4831616988 66.7365001402
289 17 1 43.1638859685 38.1046828425 3.07672049345
290 17 1 39.2533859507 35.7624079918 -0.0441334274709
291 17 2 43.5457465989 37.7546972407 3.27439225557
292 17 2 44.0715137945 36.9769891006 3.71278581852
293 17 2 44.3137131829 36.0913757733 4.19286758432
294 17 2 44.2526417436 35.1666093337 4.6560385277
295 17 2 43.8962387818 34.2750105586 5.04524099965
296 17 2 43.2793622813 33.4858770805 5.31015937964
297 17 2 42.4606116928 32.8591670942 5.41180620993
298 17 2 41.5169867508 32.4400343271 5.32607579815
299 17 2 40.5368691531 32.254712398 5.04594138674
300 17 2 39.6119668057 32.3081236927 4.58209562309
301 17 2 38.8289548919 32.5834307019 3.96197595335
302 17 2 38.2615756615 33.0435707148 3.22726377251
303 17 2 37.9639170214 33.6346339863 2.43008527669
304 17 2 37.9654825675 34.2907774663 1.62826029964
305 17 2 38.2685024111 34.9402262178 0.880032189455
306 17 2 38.8477299098 35.51181551 0.238759083087
307 18 1 19.9079935774 38.8296169725 51.0544718669
308 18 1 21.4283315589 37.066545366 46.0446672805
309 18 2 19.9218900298 38.4435431202 51.4521343585
310 18 2 19.8233587279 37.5963000429 52.0402846469
311 18 2 19.5847364652 36.6457710746 52.3764454824
312 18 2 19.2435539226 35.6687030895 52.4252577377
313 18 2 18.8466898764 34.7442619223 52.1775533405
314 18 2 18.4460983232 33.9468166138 51.6511909191
315 18 2 18.094073012 33.3391608719 50.8894280355
316 18 2 17.8384810082 32.9667895927 49.9569783751
317 18 2 17.7183997396 32.8537521223 48.9341132665
318 18 2 17.7605551922 33.0004602233 47.9093451649
319 18 2 17.9768859087 33.3836505437 46.9713599781
320 18 2 18.3634548219 33.9585050094 46.2009335833
321 18 2 18.9008081081 34.6627358716 45.6635693216
322 18 2 19.5557483509 35.4222630687 45.4035275436
323 18 2 20.2843603973 36.1579664261 45.4397913966
324 18 2 21.036014106 36.7928972484 45.7643365618
325 19 1 34.4374968496 50.7169598352 39.3723973324
326 19 1 32.4514890338 46.4863439235 42.3178434828
327 19 2 34.2613838853 51.217194796 39.5340475594
328 19 2 33.7198605412 52.0517188505 39.8234816303
329 19 2 32.9463670798 52.6876741252 40.0894116304
330 19 2 32.0111375118 53.0651456555 40.3267108302
331 19 2 30.9991476619 53.1477785793 40.5328621213
332 19 2 30.0023698493 52.9260917855 40.7081874441
333 19 2 29.1113898564 52.4183420916 40.8558184432
334 19 2 28.4071502775 51.6688601843 40.9814110273
335 19 2 27.9535728169 50.7440099951 41.0926298472
336 19 2 27.791731997 49.7261398057 41.1984496843
337 19 2 27.9361113252 48.7060764225 41.3083374226
338 19 2 28.3732831606 47.7748465554 41.4313891679
339 19 2 29.0631326081 47.0153799767 41.575501162
340 19 2 29.9425138835 46.4949506942 41.7466500611
341 19 2 30.9310058829 46.259045105 41.94834818
342 19 2 31.9382423519 46.327216032 42.1813233536
343 20 1 63.9266662951 3.11337941223 89.7725031809
344 20 1 62.341118929 1.57679622455 94.8363893091
345 20 2 63.9970087035 3.6592005978 89.7053260493
346 20 2 63.9142416312 4.69155283346 89.6761972932
347 20 2 63.5671519615 5.66127771824 89.7885023251
348 20 2 62.9951857381 6.4850111891 90.0488248549
349 20 2 62.2582859015 7.09269591018 90.4502571927
350 20 2 61.4314286503 7.43396681172 90.973029867
351 20 2 60.5977895609 7.48274173154 91.5863135591
352 20 2 59.8411623561 7.23959873442 92.2510291126
353 20 2 59.2383213313 6.73172342306 92.9234094947
354 20 2 58.8520235828 6.01043104301 93.5589890437
355 20 2 58.7252888656 5.14648923524 94.1166563956
356 20 2 58.8774784587 4.22366775477 94.562401675
357 20 2 59.3025304352 3.33110308143 94.8724164043
358 20 2 59.9695121916 2.55517386794 95.0352635824
359 20 2 60.8254398715 1.97162775659 95.0529201376
360 20 2 61.8001077025 1.63867718412 94.9405967352
361 21 1 53.8085241169 10.5878246853 34.2713300724
362 21 1 49.6618987929 7.23217092571 32.8349884245
363 21 2 53.9330196726 10.5872799801 34.8115912573
364 21 2 53.9343140401 10.6199973139 35.8471480698
365 21 2 53.6338551023 10.6781594817 36.8369923
366 21 2 53.0567836127 10.7379218058 37.6954018595
367 21 2 52.2534528197 10.7752937586 38.3486345786
368 21 2 51.2948389022 10.7683256351 38.7416496083
369 21 2 50.266071681 10.6991092095 38.8431242465
370 21 2 49.258675263 10.5554100225 38.6483089187
371 21 2 48.3622258637 10.3317825196 38.1794600886
372 21 2 47.656187174 10.0300663984 37.4838116414
373 21 2 47.2026674578 9.65921892542 36.6292696413
374 21 2 47.0407585495 9.23449850518 35.6982228749
375 21 2 47.1829727377 8.77607391732 34.7800333339
376 21 2 47.6141023036 8.30718598626 33.9628911084
377 21 2 48.2926056639 7.85202924221 33.3257760956
378 21 2 49.1543937752 7.43354665438 32.9312591934
379 22 1 79.4547155684 44.9958023803 78.9596360487
380 22 1 80.7220818739 44.7548866351 84.3312031676
381 22 2 79.1514325006 45.4353616202 78.8106775191
382 22 2 78.4484039594 46.1899966317 78.7120525691
383 22 2 77.6316369793 46.8092043015 78.8634578964
384 22 2 76.7831511549 47.2503987444 79.2620419909
385 22 2 75.9878571685 47.4872195054 79.8824236586
386 22 2 75.3258174088 47.5119342441 80.6790054494
387 22 2 74.8649484978 47.3361435174 81.590129743
388 22 2 74.6548308722 46.9897234193 82.5436986761
389 22 2 74.7221896593 46.5181024548 83.4637456699
390 22 2 75.0684587532 45.9781208536 84.2773595809
391 22 2 75.6696501187 45.4328497345 84.9213303565
392 22 2 76.4785402371 44.9458423417 85.3479104625
393 22 2 77.4289744035 44.5753413365 85.5291669433
394 22 2 78.4418965511 44.3689701344 85.4595274359
395 22 2 79.4325550009 44.3593921581 85.156288076
396 22 2 80.3182273504 44.5613336536 84.6580370018
397 23 1 81.5285775608 30.5430630769 92.348716702
398 23 1 86.4836315632 31.7351593903 94.4804618263
399 23 2 81.4005940736 30.8201938344 91.8858988563
400 23 2 81.224967755 31.525757922 91.1478035199
401 23 2 81.1600425406 32.418236005 90.6255798139
402 23 2 81.2286636774 33.4167390379 90.3577499347
403 23 2 81.4415040191 34.4307140842 90.3596487613
404 23 2 81.7960912245 35.368197975 90.6220261219
405 23 2 82.2770331048 36.1441995057 91.1118899228
406 23 2 82.8574205799 36.6884461571 91.7755132891
407 23 2 83.50128037 36.951789248 92.543331626
408 23 2 84.166853863 36.9106837058 93.3362832456
409 23 2 84.810403301 36.5693341372 94.0730156284
410 23 2 85.3901983601 35.9593115893 94.6773004883
411 23 2 85.8703197571 35.1366759334 95.0849817766
412 23 2 86.2239331972 34.176866157 95.2498233348
413 23 2 86.4357352474 33.1678243023 95.1477231969
414 23 2 86.5033482041 32.2019797837 94.7789104189
415 24 1 64.1596245279 43.8760473789 63.2343938667
416 24 1 60.2663051931 45.3363527043 66.8713656807
417 24 2 64.6638002939 44.0829785805 63.3362165694
418 24 2 65.4896977862 44.6735374472 63.5425744341
419 24 2 66.09933771 45.4799836071 63.7693645698
420 24 2 66.4379752923 46.4278210319 64.0150855808
421 24 2 66.4755668989 47.4296662575 64.2765105726
422 24 2 66.2095084321 48.3932131529 64.5489812751
423 24 2 65.6648726863 49.2296463778 64.8268326309
424 24 2 64.8921240307 49.861736663 65.1039091506
425 24 2 63.9625187164 50.2308800523 65.374125969
426 24 2 62.9616100597 50.3024394961 65.6320234644
427 24 2 61.981450486 50.0689019262 65.8732648883
428 24 2 61.1122011972 49.5505630515 66.0950316488
429 24 2 60.4339142191 48.7936774589 66.2962802173
430 24 2 60.0092358736 47.8662426309 66.4778372438
431 24 2 59.8776967331 46.8518011571 66.6423242096
432 24 2 60.0521085154 45.8418260502 66.7939184863
433 25 1 95.0410389204 7.9815346199 59.1938910449
434 25 1 90.1147454935 7.85347640105 61.6905338359
435 25 2 95.3074421844 8.46658774293 59.2275712594
436 25 2 95.6004027647 9.46029732636 59.2147115025
437 25 2 95.6007757175 10.4920107632 59.1197522676
438 25 2 95.3042340533 11.4732627462 58.9692278562
439 25 2 94.7335137562 12.3201873947 58.7947371874
440 25 2 93.9363414601 12.9611624056 58.6300636408
441 25 2 92.9810842933 13.3433372348 58.5080957912
442 25 2 91.9505183974 13.437450283 58.4578297034
443 25 2 90.9342841036 13.2404960124 58.5017260183
444 25 2 90.0207154556 12.7759988933 58.6536627254
445 25 2 89.2887887981 12.0918692116 58.9176702213
446 25 2 88.8009242939 11.2560361742 59.2875639497
447 25 2 88.5972964925 10.3502563435 59.7475081071
448 25 2 88.6921725281 9.46266174501 60.2734590343
449 25 2 89.0726117077 8.67972686906 60.8353567313
450 25 2 89.699645021 8.07838675194 61.3998647461
451 26 1 79.9075605522 91.1016725089 24.7119489221
452 26 1 76.6519451798 86.7735192325 25.8010076095
453 26 2 79.8103464942 91.5509385448 25.0219344766
454 26 2 79.4057005436 92.3547606445 25.5353365586
455 26 2 78.7413887245 93.0411462708 25.9366027922
456 26 2 77.8741115965 93.5397011743 26.2062755616
457 26 2 76.8790694641 93.7971513739 26.3368916431
458 26 2 75.8431080709 93.7821989378 26.3336624589
459 26 2 74.8568028415 93.4883747066 26.2139990692
460 26 2 74.0062031741 92.9346279394 26.0059252008
461 26 2 73.3649892674 92.1635991399 25.7455229594
462 26 2 72.9877563677 91.2377334882 25.473644042
463 26 2 72.9050385583 90.2335891298 25.2321862141
464 26 2 73.1205256589 89.234859105 25.0602744399
465 26 2 73.6107269088 88.3247429519 24.990694747
466 26 2 74.3271120869 87.5783632913 25.0469058671
467 26 2 75.2005349116 87.0559186002 25.2409010356
468 26 2 76.1475355392 86.7971962818 25.5721148401
469 27 1 58.6259967801 82.2634662325 27.5717355121
470 27 1 62.4260354372 83.656591225 31.3316424287
471 27 2 58.1623142659 82.5671327036 27.5846501685
472 27 2 57.3004469175 83.0831792947 27.838284947
473 27 2 56.5196003902 83.5059373941 28.3721428882
474 27 2 55.8978604358 83.814385681 29.141395184
475 27 2 55.4988106673 83.9979218684 30.0797574601
476 27 2 55.3657370825 84.0573290733 31.1055314197
477 27 2 55.5176826609 84.0047044377 32.1290514245
478 27 2 55.947711647 83.8623565064 33.0608572781
479 27 2 56.623541726 83.6607718628 33.8198482839
480 27 2 57.4904864705 83.4358363584 34.3406753569
481 27 2 58.4764398621 83.225564213 34.5796974179
482 27 2 59.4984485623 83.0666331207 34.5189591613
483 27 2 60.4702728876 82.9910411757 34.1678276335
484 27 2 61.3102473261 83.0231903317 33.5621384511
485 27 2 61.9487241306 83.1776622289 32.7609294807
486 27 2 62.334421525 83.4578891168 31.8410596951
487 28 1 39.8425069671 39.0570631981 75.0315838793
488 28 1 42.5899047548 42.7765148467 72.0090889014
489 28 2 39.7245690274 38.5834844068 74.7685337721
490 28 2 39.4206744449 37.8427424315 74.1109629242
491 28 2 39.0463982113 37.3460639357 73.2823026899
492 28 2 38.6517554131 37.1359911665 72.3476495432
493 28 2 38.2886174946 37.2289430251 71.3817609289
494 28 2 38.0059843144 37.613718528 70.4622413211
495 28 2 37.8455179395 38.2525177461 69.6624687831
496 28 2 37.8377452593 39.084387168 69.0449067526
497 28 2 37.9992755406 40.030775449 68.6554106666
498 28 2 38.3312865382 41.0026931566 68.519048361
499 28 2 38.819417145 41.9088239192 68.6378152039
500 28 2 39.4350763689 42.6638476694 68.9904522237
501 28 2 40.1380493252 43.1962173403 69.5343838071
502 28 2 40.8801627158 43.4546801891 70.2095983526
503 28 2 41.6096756967 43.4129493476 70.9441181677
504 28 2 42.2759959176 43.0720998003 71.6605600429
505 29 1 54.6135588331 64.0409671206 95.8155685615
506 29 1 52.2138702644 63.5901100835 100.770991224
507 29 2 54.5681772759 64.5401366979 95.5786047767
508 29 2 54.2551061997 65.446416406 95.1860571958
509 29 2 53.6730398154 66.2554166344 94.902918774
510 29 2 52.8769584809 66.9050859622 94.7701246308
511 29 2 51.9413494444 67.347895554 94.8149064067
512 29 2 50.9534175315 67.5551712865 95.0483101715
513 29 2 50.0051366581 67.5197073183 95.464189605
514 29 2 49.1848666538 67.2564228826 96.0397662177
515 29 2 48.5692994994 66.8010024396 96.7377055487
516 29 2 48.2164690585 66.2066431329 97.5095201027
517 29 2 48.1604614452 65.5392060122 98.299988855
518 29 2 48.4083081661 64.8712129747 99.0521905007
519 29 2 48.9393452178 64.2752365877 99.7126916795
520 29 2 49.7070965546 63.8172852936 100.236417283
521 29 2 50.6435102568 63.5507869163 100.590758933
522 29 2 51.6651612808 63.511718858 100.758547142
523 30 1 60.2786606438 44.0942190087 26.9902684705
524 30 1 63.2719658991 48.1981930016 29.1617914788
525 30 2 59.8237517195 44.2558346521 26.717651812
526 30 2 58.9325287725 44.681208163 26.4042366781
527 30 2 58.0647598692 45.2457394858 26.3626250545
528 30 2 57.3056877969 45.9139552363 26.5878966925
529 30 2 56.7306479169 46.6409314717 27.0508056478
530 30 2 56.3982015484 47.3763883879 27.7004459696
531 30 2 56.3447982603 48.0692731896 28.4688916421
532 30 2 56.5814535904 48.6724134158 29.2773878594
533 30 2 57.0927450088 49.1468165839 30.0435293155
534 30 2 57.8382176403 49.4652242499 30.6887712275
535 30 2 58.7560716179 49.6145965428 31.1455884832
536 30 2 59.7687949757 49.5973007144 31.3636303737
537 30 2 60.7902286574 49.4308953699 31.3143099268
538 30 2 61.7334196838 49.1465300485 30.9934095327
539 30 2 62.5185466847 48.7861060262 30.4214653679
540 30 2 63.0801954035 48.398457126 29.6418955775
541 31 1 80.0700460819 57.3029672011 70.8551913269
542 31 1 83.4015990813 53.8466907204 68.1215310403
543 31 2 79.9733581434 57.1652909949 71.3834699398
544 31 2 79.7416350513 56.6976865299 72.2785121086
545 31 2 79.4768661543 55.98952094 72.9869250811
546 31 2 79.2203558298 55.0987109192 73.4496452682
547 31 2 79.0126557085 54.0998207133 73.6300033214
548 31 2 78.8898685014 53.0772657881 73.5170664462
549 31 2 78.8803573344 52.1176185851 73.1266348968
550 31 2 79.0021605251 51.3017176754 72.4998018254
551 31 2 79.2613474383 50.6972995394 71.699207751
552 31 2 79.6514652799 50.352824568 70.8033310435
553 31 2 80.1541272513 50.2930600274 69.8993348304
554 31 2 80.7406884576 50.5168225891 69.0751223102
555 31 2 81.3748568126 50.9970861869 68.4113246111
556 31 2 82.0160009659 51.6834453708 67.9739514792
557 31 2 82.6228537418 52.5067096289 67.8083746663
558 31 2 83.1572735317 53.3852099178 67.9351924164
559 32 1 64.811060273 30.6695015261 87.4491743117
560 32 1 65.4208353996 35.5574963815 84.9484400895
561 32 2 64.3205071569 30.4246121845 87.3669037904
562 32 2 63.3185347228 30.1763589254 87.2781819105
563 32 2 62.2835897531 30.2229792538 87.2653185583
564 32 2 61.3065155668 30.5645642351 87.3110978782
565 32 2 60.4728807156 31.1743196948 87.3929588914
566 32 2 59.8551796395 32.0010084361 87.4850518695
567 32 2 59.5062249917 32.9736203736 87.5605944676
568 32 2 59.4543339069 34.0078449122 87.5943128638
569 32 2 59.7007469701 35.0137556331 87.5647454006
570 32 2 60.2195151403 35.9040068465 87.456198757
571 32 2 60.9598649367 36.6017949172 87.2601783536
572 32 2 61.8508263053 37.0478587113 86.9761626103
573 32 2 62.8077013499 37.2058810898 86.611650487
574 32 2 63.739784319 37.0657991189 86.1814779734
575 32 2 64.5586291923 36.6447212795 85.7064658285
576 32 2 65.1861112995 35.9853680749 85.2115218236
577 33 1 63.9454292725 41.1072836693 60.3757885441
578 33 1 60.709266468 37.8060289359 63.4001824585
579 33 2 63.8925877499 41.6485810039 60.4834294152
580 33 2 63.5643788141 42.6156703852 60.6579775008
581 33 2 62.9633126647 43.4475122823 60.8001342923
582 33 2 62.1419202979 44.0682653858 60.9160229263
583 33 2 61.1728148559 44.4213285654 61.0141608118
584 33 2 60.1420731327 44.4744999122 61.1046832912
585 33 2 59.141389905 44.2229118561 61.1984198307
586 33 2 58.2597201974 43.6894748321 61.3059069435
587 33 2 57.5751712708 42.9227890553 61.436427815
588 33 2 57.1478833534 41.9927147412 61.5971661648
589 33 2 57.0145480201 40.9840045338 61.7925514702
590 33 2 57.1850638535 39.9885785286 62.0238552312
591 33 2 57.6416342145 39.0971460014 62.2890750764
592 33 2 58.3403893581 38.3909375008 62.5831172742
593 33 2 59.215385044 37.9343009001 62.8982610123