LAMMPS input file for bananas

4320 atoms

2 atom types

0 100.793683992 xlo xhi
0 100.793683992 ylo yhi
0 100.793683992 zlo zhi

Masses

 1 1
 2 1

Atoms

1 1 1 85.1023627204 22.8556215309 42.7164133306
2 1 1 80.6735812371 21.0863690052 45.5045365585
3 1 2 85.4683862763 23.1432646827 43.0175275312
4 1 2 85.962216841 23.8028053666 43.6456895093
5 1 2 86.1696815068 24.5594899356 44.3223259602
6 1 2 86.0714823258 25.3348680142 45.0024698915
7 1 2 85.6761817927 26.0487853637 45.6408346132
8 1 2 85.0194223966 26.6266897264 46.1959414986
9 1 2 84.1606779027 27.0064260648 46.6339006505
10 1 2 83.1778324785 27.1439018274 46.9314998742
11 1 2 82.1600817593 27.0171058665 47.0783204075
12 1 2 81.1998029048 26.6281146956 47.0776865627
13 1 2 80.3841346679 26.0029032209 46.9463627247
14 1 2 79.7870349302 25.188977198 46.7130253218
15 1 2 79.4625396387 24.251043209 46.4156490462
16 1 2 79.4398375739 23.2651108308 46.0980455622
17 1 2 79.7206098701 22.3115645651 45.80587019
18 1 2 80.278876785 21.4678370062 45.5824605455
19 2 1 9.71035924183 56.7520600185 66.7197249589
20 2 1 14.7663076316 55.541959428 68.5881557181
21 2 2 9.43137930485 57.1223155026 67.0238016915
22 2 2 8.97035692015 57.6732142649 67.7704066243
23 2 2 8.63625468017 58.0075003942 68.6924036353
24 2 2 8.47347035744 58.1069337978 69.7107671626
25 2 2 8.51078655422 57.9746805815 70.737688094
26 2 2 8.75874724526 57.6350244669 71.6845773329
27 2 2 9.20869672262 57.1311533956 72.4701404573
28 2 2 9.83356854038 56.5212230637 73.0277874897
29 2 2 10.5903525488 55.8730561853 73.311702395
30 2 2 11.4240151546 55.2579606334 73.3010190898
31 2 2 12.2725154858 54.7442299184 73.0017233303
32 2 2 13.0724602513 54.3909184162 72.4461071266
33 2 2 13.7648818701 54.2424587207 71.6898254121
34 2 2 14.3006132087 54.3246117308 70.8068232451
35 2 2 14.6447690339 54.6421186138 69.8825959146
36 2 2 14.7799257082 55.1782686606 69.006396273
37 3 1 93.047577555 8.61214907675 36.281623919
38 3 1 92.4575172463 13.0635544656 39.499512972
39 3 2 93.0910275234 8.13116989078 36.5539338729
40 3 2 93.3368779026 7.34733866958 37.1852944821
41 3 2 93.7658360308 6.77756742865 37.9368300225
42 3 2 94.3263638381 6.47633514099 38.7544593378
43 3 2 94.95493103 6.47364417176 39.578077001
44 3 2 95.581805704 6.77228564284 40.347031763
45 3 2 96.137410226 7.34758502962 41.0056547522
46 3 2 96.5586630459 8.14965117787 41.508333543
47 3 2 96.7947284119 9.10792374917 41.823669607
48 3 2 96.811649914 10.1376046071 41.9373402043
49 3 2 96.5954455193 11.1473869409 41.8534038634
50 3 2 96.1533819977 12.0477776369 41.5939304572
51 3 2 95.5133125746 12.759254337 41.1969895927
52 3 2 94.721138184 13.2195136889 40.7131806684
53 3 2 93.8366237214 13.38915013 40.2010208745
54 3 2 92.927950633 13.2552475994 39.7216115067
55 4 1 61.3736602768 42.1649652655 91.8350741739
56 4 1 58.1786062284 43.424652263 87.5080879991
57 4 2 61.222268902 42.4004282091 92.3136339318
58 4 2 60.9377938668 43.0375447213 93.0795363509
59 4 2 60.6579693233 43.8781816419 93.6166376483
60 4 2 60.3891391361 44.8448807773 93.8748490408
61 4 2 60.1366450639 45.8486937 93.8295018144
62 4 2 59.904339872 46.7972891598 93.4835958119
63 4 2 59.6942361634 47.6033688309 92.8675260053
64 4 2 59.506322935 48.1926243205 92.0363120751
65 4 2 59.3385665809 48.5105101806 91.0645835139
66 4 2 59.1870962499 48.5272155795 90.039777347
67 4 2 59.0465566635 48.2403814796 89.0541684819
68 4 2 58.9105962348 47.6753156573 88.1964590967
69 4 2 58.7724459991 46.8826859669 87.5436936737
70 4 2 58.6255365866 45.933902101 87.1542366009
71 4 2 58.4640970032 44.914606788 87.0624524139
72 4 2 58.2836806409 43.9168696862 87.2755735603
73 5 1 58.4773662138 69.347270322 72.5179066879
74 5 1 57.7262512226 64.6831920552 75.3815042946
75 5 2 58.6545926078 69.7790854051 72.8170857769
76 5 2 58.8064568801 70.527874396 73.5168731025
77 5 2 58.7241015848 71.1340743463 74.353048465
78 5 2 58.4272643941 71.5339837663 75.2615693229
79 5 2 57.9552324321 71.6827039969 76.1717990362
80 5 2 57.3632613576 71.5582316023 77.0129452073
81 5 2 56.7175389591 71.1634639243 77.7205122187
82 5 2 56.0891523147 70.5259349972 78.2421798365
83 5 2 55.5476083948 69.6953058945 78.5425720595
84 5 2 55.1544986874 68.7388382544 78.6064815474
85 5 2 54.9578852991 67.7352635616 78.440255729
86 5 2 54.987920222 66.7676069827 78.0712182514
87 5 2 55.2540970603 65.9156198442 77.5451785022
88 5 2 55.7443857139 65.2485105123 76.9222562064
89 5 2 56.4263288899 64.8186362352 76.2714016744
90 5 2 57.2500004976 64.65673092 75.664111165
91 6 1 79.0755398959 34.4894080787 79.549502786
92 6 1 73.7226866253 35.4852944194 80.4839348707
93 6 2 79.3969948574 34.9406622013 79.529057429
94 6 2 79.8344854154 35.860567618 79.3397797304
95 6 2 80.0188662708 36.8151155804 78.9816011453
96 6 2 79.9256147275 37.728214158 78.5009711956
97 6 2 79.5555135406 38.5275494208 77.9555005179
98 6 2 78.9345795703 39.151176661 77.4087098075
99 6 2 78.1116924143 39.5531664874 76.9242400776
100 6 2 77.1541391638 39.7077911666 76.5600519502
101 6 2 76.1414813642 39.6118696373 76.363142701
102 6 2 75.1583031936 39.2850574555 76.3652625829
103 6 2 74.2865018406 38.768055243 76.5800208755
104 6 2 73.5978227944 38.1188989345 77.0016454355
105 6 2 73.1473204355 37.4076699575 77.6055088125
106 6 2 72.9683399761 36.7101074971 78.3503729747
107 6 2 73.0694781327 36.1007050721 79.1821480458
108 6 2 73.4337995587 35.6459206497 80.0388224524
109 7 1 37.4905715394 39.3566155513 80.6481386331
110 7 1 36.1628249717 40.8810235286 75.507004475
111 7 2 37.2930840818 38.8624404022 80.8036095764
112 7 2 36.7200764774 38.0255676504 81.0151664095
113 7 2 35.9303917072 37.3594834354 81.0937780717
114 7 2 34.9978805665 36.9146904026 81.0161112083
115 7 2 34.0094120927 36.7215210973 80.7730768342
116 7 2 33.0569556845 36.7873732347 80.370658771
117 7 2 32.2291983369 37.0960354178 79.8293682377
118 7 2 31.603461059 37.6091647629 79.1823743077
119 7 2 31.2386512705 38.2697817509 78.4724806363
120 7 2 31.1698935478 39.0074637583 77.7482240225
121 7 2 31.4053281127 39.7447638911 77.0594504087
122 7 2 31.9253688731 40.4042700621 76.452771557
123 7 2 32.6844886428 40.9156608958 75.9673165112
124 7 2 33.6153688231 41.2221153339 75.6311650892
125 7 2 34.6350353128 41.2854917226 75.4587884827
126 7 2 35.6524213757 41.0898043229 75.4497302467
127 8 1 15.5709752006 29.0412510661 24.2017190495
128 8 1 14.0229224636 33.0421813413 20.7211902509
129 8 2 15.1595479123 28.8179683004 24.4987947656
130 8 2 14.3397388536 28.6252173379 25.1022930547
131 8 2 13.5076648627 28.7384572319 25.7091535092
132 8 2 12.7248786327 29.1469347941 26.2512252854
133 8 2 12.0484404091 29.812986712 26.6662628541
134 8 2 11.5257171008 30.6754724588 26.9035995151
135 8 2 11.1900649131 31.6553470894 26.9287655306
136 8 2 11.0577890185 32.6628659756 26.7266299503
137 8 2 11.1266573841 33.6057647892 26.3027797566
138 8 2 11.3761042153 34.397669149 25.6830106266
139 8 2 11.769104473 34.9659674144 24.9109757244
140 8 2 12.2555486069 35.2584290431 24.0442068328
141 8 2 12.7768099071 35.2479652646 23.148870484
142 8 2 13.2710881721 34.9350981499 22.2937370579
143 8 2 13.679042632 34.3479130255 21.5439125454
144 8 2 13.949200701 33.5394985718 20.9549043113
145 9 1 21.4092982082 90.6516280639 76.4615948632
146 9 1 17.1410240676 87.4423366496 75.0472838861
147 9 2 21.3730922095 91.1775405948 76.2898778765
148 9 2 21.2596003595 92.0610322549 75.7607161832
149 9 2 21.0800437659 92.7479698148 75.0061790869
150 9 2 20.832061799 93.1793314381 74.0973985274
151 9 2 20.5195306192 93.319390352 73.1195653241
152 9 2 20.1522098752 93.1589712472 72.1641642602
153 9 2 19.7448531379 92.7162865826 71.3206354892
154 9 2 19.315863152 92.0352765684 70.6682223044
155 9 2 18.8856144752 91.1816041334 70.268748324
156 9 2 18.4745963911 90.2366699248 70.1609824339
157 9 2 18.1015453665 89.2901928562 70.3571051072
158 9 2 17.7817372721 88.4320324692 70.8415981866
159 9 2 17.5255950279 87.7439984754 71.5726593231
160 9 2 17.3377385816 87.2923940208 72.4860121484
161 9 2 17.2165638133 87.1219723307 73.5007648937
162 9 2 17.1543887459 87.2518575728 74.5267834589
163 10 1 12.9285964777 96.374777966 78.9834284653
164 10 1 7.42312849306 96.6288159774 78.6049076339
165 10 2 13.1209230538 96.1840645542 79.4671850887
166 10 2 13.3345920707 95.9884886501 80.4619441692
167 10 2 13.3315399848 96.0053482373 81.4978768168
168 10 2 13.0993075033 96.2193182217 82.4846568994
169 10 2 12.6463245142 96.5971074232 83.3364384101
170 10 2 12.0011417241 97.0904929782 83.9796801008
171 10 2 11.2098283377 97.6407157242 84.3598485707
172 10 2 10.3317729731 98.1838359408 84.4463888398
173 10 2 9.43427054778 98.656561284 84.2355093541
174 10 2 8.58638852686 99.0020157147 83.7505275749
175 10 2 7.85267160823 99.1749235969 83.0397446553
176 10 2 7.28725864584 99.1457364515 82.1720429187
177 10 2 6.92894803787 98.9033262212 81.2306074193
178 10 2 6.79766135641 98.4559995626 80.3053438466
179 10 2 6.89262754945 97.8307407174 79.4846838623
180 10 2 7.19245322019 97.0707519703 78.8475247905
181 11 1 26.43314121 22.7930361476 68.5005485238
182 11 1 27.164583825 26.6790322403 72.3582702776
183 11 2 25.998022134 22.459794669 68.5842330186
184 11 2 25.2776640181 21.8143295075 68.9555939231
185 11 2 24.7243356284 21.2015912311 69.5815567885
186 11 2 24.3754407262 20.6897077126 70.4120371447
187 11 2 24.2497495064 20.3376141837 71.3783092985
188 11 2 24.3456877452 20.1896814453 72.3992704978
189 11 2 24.6414802859 20.271671588 73.3888332298
190 11 2 25.0971357862 20.5883898463 74.2637718682
191 11 2 25.6580918225 21.1232466145 74.9513084666
192 11 2 26.2601881087 21.8397695444 75.3957462734
193 11 2 26.8355145349 22.6849279032 75.5635463423
194 11 2 27.3186009924 23.5939661821 75.4463845173
195 11 2 27.652384799 24.4963063887 75.0619101576
196 11 2 27.7934118103 25.3219810416 74.4521374452
197 11 2 27.7157971483 26.00801052 73.6796159049
198 11 2 27.4135845395 26.5041434876 72.8217291823
199 12 1 39.8848810008 94.4883397353 13.5557791959
200 12 1 39.8100589157 89.1722434244 15.0562833545
201 12 2 39.7974303602 94.5799558103 13.0160195565
202 12 2 39.802132992 94.5889205075 11.9799946868
203 12 2 40.0130359236 94.3758201919 10.9882496489
204 12 2 40.397571344 93.9468728291 10.1270953761
205 12 2 40.9073453054 93.3279702658 9.47093980256
206 12 2 41.4825487012 92.5623182577 9.0755057788
207 12 2 42.0574087071 91.7064983802 8.97275208301
208 12 2 42.5661837977 90.8253107688 9.16796046371
209 12 2 42.9491559112 89.9858677604 9.63925422255
210 12 2 43.1580735906 89.2514767827 10.3395922169
211 12 2 43.1605499756 88.6758700517 11.2010565341
212 12 2 42.943014778 88.2983070237 12.1410430281
213 12 2 42.5119511775 88.1399960006 13.069790466
214 12 2 41.8933048967 88.2021610505 13.898562025
215 12 2 41.1301193185 88.4659304362 14.5477334165
216 12 2 40.2786121961 88.8940567245 14.9540504269
217 13 1 88.4758040028 66.3230123271 48.2179006436
218 13 1 86.5779092374 65.4912687133 53.3388565194
219 13 2 88.9021368372 66.0002323608 48.0714936911
220 13 2 89.7901177569 65.4710180412 48.0016932516
221 13 2 90.7210788582 65.0660538572 48.2084913383
222 13 2 91.6054228244 64.8055540687 48.6812763009
223 13 2 92.3578013659 64.6965653921 49.3851924961
224 13 2 92.9048944891 64.7323247108 50.2643172864
225 13 2 93.1920934173 64.8928755154 51.2467582393
226 13 2 93.1884780352 65.1468868861 52.2512059302
227 13 2 92.8896351747 65.4545092223 53.1943450791
228 13 2 92.3180608632 65.7710064271 53.9984485158
229 13 2 91.5211098707 66.0508334831 54.5984618035
230 13 2 90.5666794497 66.2517877591 54.9479327773
231 13 2 89.5370206813 66.3388556667 55.0232455343
232 13 2 88.5212415097 66.2874040558 54.8257729604
233 13 2 87.6071847908 66.0854254601 54.3817515953
234 13 2 86.8734216508 65.7346325456 53.7398902421
235 14 1 41.807999685 22.9070000646 59.5382058205
236 14 1 38.3877227785 19.2834887166 61.9235490777
237 14 2 41.7568199827 23.4292402173 59.7171679645
238 14 2 41.4327347402 24.3692074094 60.0085104514
239 14 2 40.8360025651 25.1849270513 60.236462613
240 14 2 40.0178369891 25.7994443318 60.3990160304
241 14 2 39.0496346071 26.154143497 60.5001232052
242 14 2 38.0164674674 26.2140905196 60.5493373001
243 14 2 37.0093289826 25.9712172427 60.5609413932
244 14 2 36.1168401229 25.4450567699 60.5526466137
245 14 2 35.4171718515 24.6809630759 60.5439778199
246 14 2 34.9709200506 23.7459771123 60.5544939606
247 14 2 34.8155823681 22.7227162045 60.602005329
248 14 2 34.9621404079 21.701843703 60.700950202
249 14 2 35.3940587854 20.7738052616 60.8610788304
250 14 2 36.068792284 20.0205849575 61.0865647289
251 14 2 36.921663738 19.508232662 61.375624272
252 14 2 37.871759183 19.2808437712 61.7206792661
253 15 1 79.661631013 56.5803869616 51.4573630662
254 15 1 75.6535604799 53.4672956869 53.6395693761
255 15 2 79.6275089271 57.1211507431 51.5748015775
256 15 2 79.3417117369 58.106261887 51.7208358591
257 15 2 78.7860877015 58.9790481476 51.7753893716
258 15 2 78.0052411392 59.6596131246 51.7517256961
259 15 2 77.0643048 60.0855808737 51.6702377016
260 15 2 76.0430031887 60.2177813078 51.5565887889
261 15 2 75.0283858905 60.0438204452 51.4393737409
262 15 2 74.1068932327 59.5792100881 51.3475123838
263 15 2 73.3564774809 58.8659539633 51.307613623
264 15 2 72.839497698 57.9687191948 51.3415501119
265 15 2 72.5970358819 56.9689420681 51.4644646183
266 15 2 72.6451524519 55.9574053308 51.6833898016
267 15 2 72.973422384 55.0259635873 51.9966072045
268 15 2 73.5458854238 54.2591709977 52.393803886
269 15 2 74.304323768 53.7265743916 52.8570124182
270 15 2 75.1735684614 53.4763742606 53.3622485695
271 16 1 92.622549928 26.2798710231 50.5168726019
272 16 1 94.887868304 29.0695664095 54.7125755666
273 16 2 92.9845689485 26.0234251911 50.1843679372
274 16 2 93.7658764666 25.7547694788 49.559201814
275 16 2 94.6312869311 25.7752454306 48.9899079755
276 16 2 95.5150267491 26.0767424393 48.5409608751
277 16 2 96.3496516563 26.6255355794 48.2658656827
278 16 2 97.072194081 27.365359544 48.2022814313
279 16 2 97.6299024704 28.2225370772 48.3685884971
280 16 2 97.9850494533 29.112694459 48.762213277
281 16 2 98.1183705895 29.9484519442 49.3598627661
282 16 2 98.0308202716 30.6473881929 50.1196476523
283 16 2 97.743484735 31.1395527552 50.9849004155
284 16 2 97.295660104 31.3738418677 51.8893404206
285 16 2 96.7412706546 31.3226564251 52.7631152199
286 16 2 96.1439537613 30.9844175647 53.5391674176
287 16 2 95.5712595205 30.3837105757 54.1593467715
288 16 2 95.0884937394 29.5690440156 54.5797104328
289 17 1 45.5981961072 29.8365116932 23.0677033925
290 17 1 40.1095783105 29.2571560716 22.8280936968
291 17 2 45.7816317927 30.1540471622 23.4835208565
292 17 2 45.9645365605 30.8996374471 24.1792873288
293 17 2 45.915513313 31.778440361 24.7258695924
294 17 2 45.6270711629 32.7054547156 25.0876644565
295 17 2 45.1135416159 33.5912849786 25.2459116077
296 17 2 44.4097722927 34.3502894375 25.2004035629
297 17 2 43.5679506607 34.9083862131 24.9695045804
298 17 2 42.6528472865 35.2098056244 24.5884768068
299 17 2 41.7359121716 35.2221734462 24.1062662271
300 17 2 40.8887622758 34.9394617329 23.5810413682
301 17 2 40.1766538225 34.3825382502 23.0748913941
302 17 2 39.6525343689 33.5972644333 22.6481668435
303 17 2 39.352216777 32.6503152404 22.3539788404
304 17 2 39.2911149674 31.6231019078 22.2333581567
305 17 2 39.4628389816 30.6043515337 22.3115153668
306 17 2 39.8397774095 29.6820198404 22.5955429716
307 18 1 17.8879383345 77.8422458365 82.0573112444
308 18 1 21.17209007 76.8869073754 77.7191472475
309 18 2 18.1435153775 78.0531883789 82.5017943228
310 18 2 18.7702234933 78.2686836474 83.2981916721
311 18 2 19.5504462897 78.2454803201 83.9794874998
312 18 2 20.42568541 77.9977111158 84.475488422
313 18 2 21.3287820141 77.5599773328 84.7328901899
314 18 2 22.1900381263 76.9841950329 84.7201362301
315 18 2 22.9435694201 76.3348630312 84.4302939418
316 18 2 23.5333103982 75.6831840018 83.8816865844
317 18 2 23.9181246128 75.1005745438 83.1162231622
318 18 2 24.0755541429 74.6521557496 82.1955785297
319 18 2 24.0038665739 74.3908175912 81.1955718945
320 18 2 23.7222129021 74.3523981409 80.1992560981
321 18 2 23.268881973 74.5524170263 79.2893475722
322 18 2 22.6978105554 74.984660858 78.5406869567
323 18 2 22.0736671488 75.6217495635 78.0134175756
324 18 2 21.4659576225 76.4176320078 77.7475035332
325 19 1 63.9031361927 33.7281742759 62.3393192712
326 19 1 66.5308024078 38.5636741786 61.8583805906
327 19 2 63.5899197236 33.5882007356 61.9037914999
328 19 2 62.9178802635 33.5436731877 61.1164984968
329 19 2 62.1965070144 33.7891215993 60.4144830241
330 19 2 61.5023146311 34.3083222443 59.8470522914
331 19 2 60.909340305 35.0600996121 59.451246469
332 19 2 60.4823954723 35.9820794456 59.2484625754
333 19 2 60.2711584244 36.9963739879 59.2425041961
334 19 2 60.3056462649 38.016681243 59.4192347969
335 19 2 60.5934789304 38.9561511722 59.7478662318
336 19 2 61.119184654 39.7353018431 60.1837649993
337 19 2 61.845610175 40.2892639951 60.6725204675
338 19 2 62.7173071601 40.5736936992 61.1549042573
339 19 2 63.6655861701 40.5688141889 61.5722687514
340 19 2 64.6147775188 40.2812184589 61.8718926671
341 19 2 65.4891283629 39.743268332 62.011786461
342 19 2 66.2197073711 39.0101447651 61.9645195633
343 20 1 8.16203979846 64.6062809021 98.0730859601
344 20 1 8.7075709946 62.2643745014 93.0995699818
345 20 2 7.67038445591 64.844995757 98.1662086223
346 20 2 6.79292372239 65.3949278475 98.1332333575
347 20 2 6.0293142482 66.0248841964 97.8274465353
348 20 2 5.43716141005 66.6651541496 97.2681081632
349 20 2 5.05844277051 67.2450869954 96.4975887945
350 20 2 4.91568193542 67.6995315884 95.577507566
351 20 2 5.00989558742 67.9747747019 94.5831157783
352 20 2 5.32050081799 68.0334368452 93.5964379409
353 20 2 5.80719120462 67.8578793041 92.6987954572
354 20 2 6.41361063345 67.4518118626 91.9633943962
355 20 2 7.07249000843 66.839954666 91.4486529549
356 20 2 7.71177864962 66.0657850459 91.1928767956
357 20 2 8.26121152014 65.1875746773 91.2107675873
358 20 2 8.65871369639 64.2730782714 91.4920829881
359 20 2 8.85605833153 63.3933579148 92.0025702066
360 20 2 8.82326240357 62.6163059501 92.6870880533
361 21 1 47.923023184 7.99342852207 90.1540261138
362 21 1 45.5863859879 8.65848799123 95.1154587271
363 21 2 48.4329371746 8.20562746798 90.1056430836
364 21 2 49.2851290134 8.79488010209 90.1049994036
365 21 2 49.9447956815 9.58312472338 90.2352311784
366 21 2 50.3593542026 10.494496644 90.5016752927
367 21 2 50.498562553 11.4419084518 90.8972532405
368 21 2 50.3572761409 12.3349877953 91.403116312
369 21 2 49.9559167225 13.0883145819 91.9903636032
370 21 2 49.3386110134 13.629206791 92.6226762559
371 21 2 48.5691686564 13.9043452461 93.2596278248
372 21 2 47.7252661433 13.8846335148 93.8603690396
373 21 2 46.8913668098 13.5678499714 94.3873511071
374 21 2 46.1510222288 12.9788502917 94.8097481832
375 21 2 45.5792567075 12.1673019249 95.1062670663
376 21 2 45.2357290222 11.203157038 95.2670880157
377 21 2 45.1592946806 10.1702765632 95.2947597944
378 21 2 45.3644643462 9.15878649762 95.2039673566
379 22 1 81.804964128 25.5185751108 43.365035472
380 22 1 85.5861013153 27.9974244441 40.1907168656
381 22 2 81.622833428 25.0310555284 43.1738950709
382 22 2 81.2499819045 24.2406537177 42.6173910455
383 22 2 80.8785191297 23.6636131133 41.8411890364
384 22 2 80.5583855828 23.3449380802 40.9087670576
385 22 2 80.3348432212 23.3060836519 39.8978421557
386 22 2 80.244349974 23.5429999621 38.8932867091
387 22 2 80.3112366991 24.0265013785 37.9793925371
388 22 2 80.5454894905 24.7049266954 37.2321879264
389 22 2 80.9418394726 25.5088479147 36.7125078555
390 22 2 81.4802430442 26.3573984221 36.4604490494
391 22 2 82.1277087989 27.165643763 36.4917152699
392 22 2 82.841304604 27.852323191 36.7961859601
393 22 2 83.5720707494 28.3472563679 37.3388387057
394 22 2 84.2694824944 28.5977401135 38.0629414348
395 22 2 84.8860552626 28.5733521602 38.8952233945
396 22 2 85.3816727345 28.2687240608 39.752553584
397 23 1 77.4076100496 54.446185606 45.3051597639
398 23 1 75.707532844 51.3841828986 49.577380261
399 23 2 77.2057906318 54.9624197885 45.2927993649
400 23 2 76.6220931718 55.8184045331 45.298915196
401 23 2 75.817736913 56.4687563544 45.3581058084
402 23 2 74.8661571728 56.8588777326 45.4836100689
403 23 2 73.8542082951 56.957890457 45.6826225324
404 23 2 72.8742471097 56.7614500928 45.9556376778
405 23 2 72.0157148536 56.2921419643 46.2964048371
406 23 2 71.3569848412 55.5974225635 46.6924979274
407 23 2 70.9582189468 54.7452940173 47.126448055
408 23 2 70.85588401 53.8181058753 47.5773357587
409 23 2 71.0594279807 52.905049169 48.0226977621
410 23 2 71.5504187644 52.0940268869 48.440574442
411 23 2 72.2842242574 51.4636418528 48.8115113886
412 23 2 73.1940804444 51.0760322879 49.1203326237
413 23 2 74.1971767601 50.9712080784 49.35752385
414 23 2 75.2022040503 51.1634039811 49.5200996539
415 24 1 81.5346723645 75.3886862496 45.0534248995
416 24 1 80.0516353847 70.0674347171 45.1070393204
417 24 2 81.1454958983 75.7414388375 45.2308759574
418 24 2 80.2818187055 76.2851106819 45.4095730287
419 24 2 79.3040599494 76.6271225838 45.3879932879
420 24 2 78.2934237447 76.7264241073 45.1825579445
421 24 2 77.3341108973 76.564087219 44.8264461549
422 24 2 76.5056442265 76.1450315275 44.3665708306
423 24 2 75.875620272 75.497575874 43.8593026523
424 24 2 75.4935480508 74.6708571458 43.3653320324
425 24 2 75.3863364416 73.7303515803 42.9441373465
426 24 2 75.5558415133 72.7519067812 42.6485636383
427 24 2 75.9786973488 71.8148284118 42.5200059352
428 24 2 76.6084457861 70.9946516957 42.584636202
429 24 2 77.3797709554 70.3562565837 42.8510178366
430 24 2 78.2144526464 69.9479541188 43.3093251387
431 24 2 79.0284958708 69.7970830144 43.9322388965
432 24 2 79.7397867819 69.9075178036 44.6774364599
433 25 1 46.8114777549 10.4663524457 52.986972834
434 25 1 43.334826396 6.1749296231 52.8662394637
435 25 2 46.7579862238 10.7979737184 53.4280483101
436 25 2 46.4304088132 11.4152727501 54.1929567731
437 25 2 45.8312133663 11.9692035916 54.8313731344
438 25 2 45.0114534032 12.3966051411 55.2991033233
439 25 2 44.0422863103 12.6458491035 55.5675108575
440 25 2 43.0084875344 12.6815457715 55.6261269819
441 25 2 42.0007235276 12.4877697031 55.4836048678
442 25 2 41.1072877422 12.0695112827 55.1669308992
443 25 2 40.4060529189 11.4522218613 54.7189649363
444 25 2 39.9573731942 10.6794939334 54.1945337536
445 25 2 39.7985829826 9.8090877983 53.655433726
446 25 2 39.9405940442 8.90766686244 53.1647982544
447 25 2 40.3669009068 8.04472144866 52.781343325
448 25 2 41.0350852962 7.28623493877 52.5540157041
449 25 2 41.8806824479 6.68866956465 52.5175315709
450 25 2 42.8230568982 6.29382002679 52.6892122311
451 26 1 100.414657246 18.9274052912 53.5527450349
452 26 1 98.5411175151 13.7989010698 54.3931523108
453 26 2 100.103667799 19.3290372929 53.7749136346
454 26 2 99.3471871993 19.9678712673 54.0800009458
455 26 2 98.4197204822 20.4039441099 54.2319745478
456 26 2 97.4004020031 20.5895167709 54.2335983915
457 26 2 96.3767381607 20.4996826226 54.1013404062
458 26 2 95.4366314217 20.1346376315 53.8638714922
459 26 2 94.6603682464 19.5196624974 53.5594522447
460 26 2 94.1133011921 18.7028183841 53.2324456028
461 26 2 93.8398922022 17.7505662736 52.9292732864
462 26 2 93.8596600189 16.7417092249 52.6941845801
463 26 2 94.1654011022 15.7602096857 52.5652231296
464 26 2 94.7238462132 14.88753654 52.5707593648
465 26 2 95.4786928163 14.1952394367 52.726904611
466 26 2 96.3557369046 13.7384272308 53.0360425849
467 26 2 97.2696364973 13.5507449581 53.4866121246
468 26 2 98.1316903327 13.6413071803 54.0541609594
469 27 1 67.6817899368 61.0822831286 13.6038146671
470 27 1 71.6861105676 59.8970491539 17.2202532152
471 27 2 67.2075583061 61.2591856787 13.8300699129
472 27 2 66.3452343014 61.3982123679 14.387312142
473 27 2 65.588492839 61.2870758574 15.0861977165
474 27 2 65.01271841 60.9468028603 15.8774929241
475 27 2 64.6768008441 60.4193052677 16.7035411611
476 27 2 64.617767659 59.7635599924 17.5035181784
477 27 2 64.8474091013 59.0502333806 18.2189760486
478 27 2 65.3512034965 58.3552401634 18.7991705389
479 27 2 66.0896408616 57.7528240321 19.2056863119
480 27 2 67.0018241339 57.3087905239 19.4159383811
481 27 2 68.0110197755 57.0745090233 19.4252306721
482 27 2 69.0316518304 57.08223058 19.2471840571
483 27 2 69.9771019443 57.3421483118 18.9124948489
484 27 2 70.7676043956 57.841468329 18.4661369139
485 27 2 71.3375165281 58.5455758638 17.9632624248
486 27 2 71.6413019037 59.4011903133 17.4641748867
487 28 1 28.2483791595 52.6469027062 39.425476131
488 28 1 25.0051008075 48.4302358062 37.9358933548
489 28 2 28.6293529085 52.5243550331 39.8091721806
490 28 2 29.1573517598 52.2043724211 40.6412048435
491 28 2 29.4091547748 51.7773071703 41.5509633413
492 28 2 29.3671626806 51.2644170596 42.4502021358
493 28 2 29.0405548432 50.6947825741 43.2516345314
494 28 2 28.464452593 50.1026562973 43.8768886244
495 28 2 27.6967180094 49.5243408791 44.2636506925
496 28 2 26.8126799465 48.9948801468 44.3713449242
497 28 2 25.89826801 48.5448649535 44.1848317951
498 28 2 25.0421803028 48.1976449037 43.7157879956
499 28 2 24.3277988302 47.9672000996 43.0016421316
500 28 2 23.8255894531 47.8568668916 42.102163207
501 28 2 23.5866791128 47.8590337793 41.0940128387
502 28 2 23.6381957472 47.955835179 40.0637577554
503 28 2 23.9807956519 48.1207798246 39.0999794716
504 28 2 24.58860366 48.3211653748 38.2852003189
505 29 1 30.4046840537 14.3193077531 18.9297787371
506 29 1 26.1363609327 12.6238036972 21.9997420583
507 29 2 30.5275962745 14.8578000663 18.9777391645
508 29 2 30.5273257522 15.8927067141 19.0269140393
509 29 2 30.2266250568 16.8841474689 19.0355356866
510 29 2 29.6499353487 17.7447772605 19.0215588001
511 29 2 28.8468534488 18.3991740888 19.0049978696
512 29 2 27.8876112213 18.7907135366 19.0061029138
513 29 2 26.8566741271 18.8867299348 19.0435137447
514 29 2 25.8450424224 18.6814937501 19.1325609991
515 29 2 24.9419567285 18.1967338171 19.2838687917
516 29 2 24.2267639884 17.4796568129 19.5023863557
517 29 2 23.7616852042 16.5986444948 19.786936933
518 29 2 23.5861441597 15.6370208857 20.1303250332
519 29 2 23.7131740472 14.6854575123 20.5199922826
520 29 2 24.1282295278 13.8337089377 20.9391620869
521 29 2 24.790512499 13.1624318727 21.3683687728
522 29 2 25.6366907338 12.7358335326 21.787231832
523 30 1 9.18315367248 31.3895924062 12.0885219434
524 30 1 5.71330001587 29.9765668342 8.02878483415
525 30 2 8.93983094636 31.5901585166 12.5445360598
526 30 2 8.37423761224 32.104892432 13.2435376248
527 30 2 7.69714600264 32.7503078755 13.6889990358
528 30 2 6.95458251614 33.4565530575 13.841535007
529 30 2 6.19854113794 34.1482317204 13.6884596239
530 30 2 5.48224432703 34.7512753058 13.2449426298
531 30 2 4.85529193132 35.1996941056 12.5526267447
532 30 2 4.35914029406 35.4415920477 11.6758320427
533 30 2 4.023323619 35.4438968844 10.6956933486
534 30 2 3.86276200659 35.195374639 9.70276501614
535 30 2 3.87640152676 34.7076535529 8.78876714043
536 30 2 4.04731028177 34.0141642025 8.03822551629
537 30 2 4.34422170351 33.1670923917 7.52076733814
538 30 2 4.72438441755 32.232622555 7.28477486727
539 30 2 5.13745891668 31.2849052234 7.35297551805
540 30 2 5.53010587244 30.3992984017 7.72037031483
541 31 1 40.704394971 98.3844755553 12.0582772147
542 31 1 41.5748437901 93.3750277663 14.2183102617
543 31 2 40.5059724792 98.3843655961 11.5405803046
544 31 2 40.3139378456 98.236551983 10.5332452827
545 31 2 40.3587064392 97.8967966833 9.55548655962
546 31 2 40.6240673879 97.3811755236 8.69690144578
547 31 2 41.0737034158 96.7217940334 8.03622489557
548 31 2 41.6545010661 95.9638611122 7.63415302676
549 31 2 42.3013918506 95.1615683592 7.52781083163
550 31 2 42.9432830688 94.3731506534 7.72736833308
551 31 2 43.5095377171 93.6555782006 8.2151136143
552 31 2 43.9364128632 93.0593638509 8.94706721259
553 31 2 44.1728696437 92.6239589878 9.85699072988
554 31 2 44.1852253207 92.37415764 10.8624242856
555 31 2 43.9602233724 92.3178365716 11.8722025146
556 31 2 43.5062417905 92.4452373366 12.7947640462
557 31 2 42.8525294481 92.7298557348 13.5464970786
558 31 2 42.0465401435 93.130857599 14.0593603713
559 32 1 67.9622200328 85.1146537294 29.3591815212
560 32 1 69.7548414542 81.0249462482 32.6116870507
561 32 2 68.256210578 85.5836857356 29.3901673972
562 32 2 68.7744059547 86.4328830983 29.6796279335
563 32 2 69.2256942295 87.1728613008 30.2472732136
564 32 2 69.5868593119 87.7294408752 31.0430300683
565 32 2 69.8428995995 88.0451586486 31.9960335677
566 32 2 69.988395334 88.0845053573 33.0210861707
567 32 2 70.0280025977 87.8371622214 34.0264232529
568 32 2 69.9760289239 87.3189414743 34.9220772071
569 32 2 69.8551292036 86.5703451194 35.6280777499
570 32 2 69.6942407527 85.6528732814 36.0817409994
571 32 2 69.5259457531 84.6434186335 36.2433829437
572 32 2 69.3835014738 83.6272578364 36.0999365322
573 32 2 69.2978089595 82.6902787984 35.6661427027
574 32 2 69.2945964837 81.911152222 34.983206784
575 32 2 69.3920744843 81.3541609797 34.1150427404
576 32 2 69.5992757318 81.0633409021 33.1424475848
577 33 1 13.0698899081 38.6541213253 23.7434736779
578 33 1 18.2644148451 38.2728569339 21.9024035534
579 33 2 12.7187653725 38.2814407862 23.5308652012
580 33 2 12.1509791491 37.6585327884 22.9283252093
581 33 2 11.7525931994 37.1676721194 22.1074753752
582 33 2 11.5709705853 36.8379094176 21.1422190374
583 33 2 11.6337169696 36.6836116721 20.1196218009
584 33 2 11.9461644344 36.7031527102 19.1319757404
585 33 2 12.4908854755 36.8790614188 18.2683872245
586 33 2 13.2292814731 37.1796141894 17.606655108
587 33 2 14.1051008528 37.5617264406 17.2061795746
588 33 2 15.0495662661 37.9748796622 17.1025479685
589 33 2 15.9876434621 38.3657260425 17.3042911034
590 33 2 16.8448804588 38.6829509789 17.7921057017
591 33 2 17.5541936424 38.8819502665 18.5206138364
592 33 2 18.0619822592 38.9288956523 19.4224990079
593 33 2 18.3330139811 38.8038181902 20.4146418633
594 33 2 18.3536362383 38.5024283567 21.4056963027