LAMMPS input file for bananas

648 atoms

2 atom types

0 42.5063427673 xlo xhi
0 42.5063427673 ylo yhi
0 42.5063427673 zlo zhi

Masses

 1 1
 2 1

Atoms

1 1 1 40.1233003946 18.8192953717 37.0438275762
2 1 1 34.7817935219 17.5785805043 36.3753053195
3 1 2 40.250087013 19.0508025261 37.5313839103
4 1 2 40.3086662567 19.6275779459 38.3900739583
5 1 2 40.1218200903 20.3366379482 39.122038735
6 1 2 39.6951466754 21.1036515908 39.6725747286
7 1 2 39.0561037859 21.8490056122 40.0035151756
8 1 2 38.251506106 22.4950609672 40.0967088599
9 1 2 37.3432581962 22.973229419 39.9556745472
10 1 2 36.4027120589 23.2302251732 39.6052802591
11 1 2 35.5041635932 23.2329217354 39.0894766197
12 1 2 34.7180807229 22.9713713032 38.4672908728
13 1 2 34.1046804332 22.4597114812 37.8074467076
14 1 2 33.7084401538 21.7348766767 37.1821002769
15 1 2 33.5540437599 20.8532316266 36.6602633577
16 1 2 33.6441317026 19.8854339026 36.3015131113
17 1 2 33.9590603396 18.9099936626 36.1505617848
18 1 2 34.4586924 18.0061176592 36.2331813093
19 2 1 5.86322585639 19.3709438573 24.9241295381
20 2 1 1.79151258828 22.4954488967 22.8804538342
21 2 2 5.76051006846 19.1497634603 25.4220354398
22 2 2 5.51108032245 18.9574138427 26.4090696021
23 2 2 5.19147981153 19.0630857509 27.3889364157
24 2 2 4.81220024677 19.4527234824 28.2708544738
25 2 2 4.3891729255 20.0863886088 28.9729701368
26 2 2 3.94231663613 20.901900257 29.4298182728
27 2 2 3.49372211382 21.8205027295 29.5982892297
28 2 2 3.06563852902 22.7540438755 29.4615581642
29 2 2 2.67844553504 23.6130099243 29.0306185817
30 2 2 2.34879571712 24.3146844257 28.3432803078
31 2 2 2.08809675383 24.7906876339 27.4607232233
32 2 2 1.90147163761 24.9932091382 26.4619208817
33 2 2 1.78729172771 24.8993656542 25.4364422813
34 2 2 1.73732519648 24.5132867741 24.4762878899
35 2 2 1.73748733841 23.8657385656 23.6675040483
36 2 2 1.76912435343 23.0113193264 23.0823400762
37 3 1 15.1618667949 12.5951570377 3.04825076832
38 3 1 13.9523554969 17.2998639149 5.67899337863
39 3 2 15.0930752276 12.6106895905 2.49833436729
40 3 2 14.7529323333 12.726032157 1.52650675141
41 3 2 14.1710754916 12.9589098072 0.701485159566
42 3 2 13.4066194371 13.3058338564 0.0942779000122
43 3 2 12.5353223345 13.752920595 -0.24395991324
44 3 2 11.6426806246 14.2771567525 -0.286589012316
45 3 2 10.8161362519 14.8484970945 -0.0339140735417
46 3 2 10.1371065655 15.4326029666 0.486844052982
47 3 2 9.67356334493 15.9939721701 1.22402945112
48 3 2 9.47383735448 16.499174893 2.10625943737
49 3 2 9.56221312292 16.919900748 3.04893090173
50 3 2 9.93671547375 17.2355391883 3.96193165497
51 3 2 10.5692895572 17.4350581041 4.75785391391
52 3 2 11.408357975 17.5180093702 5.35996128719
53 3 2 12.383521922 17.4945696907 5.70918309226
54 3 2 13.4119778494 17.3846130203 5.76949849019
55 4 1 16.944165569 33.9166481532 33.1984902929
56 4 1 13.9093740181 29.3143313176 32.8425253382
57 4 2 17.1712646592 34.0088161959 33.6957956751
58 4 2 17.3765858482 34.1437866823 34.7023125345
59 4 2 17.2857067471 34.2046450981 35.7325975696
60 4 2 16.911792961 34.1680673724 36.6981546946
61 4 2 16.2938079498 34.019610478 37.5163876001
62 4 2 15.4929616133 33.7550288751 38.1181281852
63 4 2 14.5871311723 33.3806614806 38.4539410457
64 4 2 13.6637628682 32.9128538929 38.4986293785
65 4 2 12.8119014717 32.3764685343 38.2535316032
66 4 2 12.1140740901 31.8026185076 37.7463993685
67 4 2 11.6387680418 31.2258317198 37.0288680639
68 4 2 11.4341884205 30.6809037562 36.1717503916
69 4 2 11.5238643296 30.199726355 35.2585819783
70 4 2 11.9045042675 29.8083805613 34.3780073257
71 4 2 12.5462961388 29.5247595093 33.6157001016
72 4 2 13.3956245478 29.3569375107 33.0465542137
73 5 1 24.4640141827 35.0513129054 5.33699168203
74 5 1 19.171736147 34.4965616598 3.85306604061
75 5 2 24.6114248099 35.5636029086 5.48934209256
76 5 2 24.7845591606 36.5818258586 5.57117443314
77 5 2 24.7980505725 37.6021408731 5.39166046647
78 5 2 24.6350752928 38.5374086717 4.97673491377
79 5 2 24.2948940363 39.3082418005 4.37378963308
80 5 2 23.7929193689 39.8502405861 3.64735397814
81 5 2 23.1593108932 40.119862994 2.87321312025
82 5 2 22.4362262819 40.0983933686 2.13150043244
83 5 2 21.6739787181 39.7936483148 1.49939354672
84 5 2 20.9264509836 39.239264236 1.04407981917
85 5 2 20.2461841869 38.4916314653 0.816632382053
86 5 2 19.6795887818 37.6247544377 0.84735496428
87 5 2 19.2627143786 36.7235063834 1.14301978753
88 5 2 19.0179639185 35.8758933598 1.68625029634
89 5 2 18.9520517053 35.1650327347 2.4371049847
90 5 2 19.0553914145 34.6615772603 3.33671795754
91 6 1 6.85416924338 27.4918012252 14.2977454089
92 6 1 2.2098534039 30.3647589071 13.4644173806
93 6 2 7.28164370177 27.7889743205 14.4883636842
94 6 2 8.02666291724 28.4868750916 14.6653690328
95 6 2 8.63477678792 29.3236239036 14.6062170502
96 6 2 9.04181971345 30.2350025025 14.3284489499
97 6 2 9.20195317266 31.1499903285 13.8695322204
98 6 2 9.09184378234 31.9972378505 13.2834455632
99 6 2 8.71279007269 32.7115698853 12.6357588793
100 6 2 8.09060412982 33.2399261406 11.9976567471
101 6 2 7.27325889304 33.5461975199 11.439450139
102 6 2 6.3265155497 33.614517369 11.0241677637
103 6 2 5.3279295787 33.4507076802 10.8018111682
104 6 2 4.35978177589 33.0817484324 10.8047972304
105 6 2 3.50157857946 32.5533184386 11.045003447
106 6 2 2.82280527057 31.9256318442 11.512685332
107 6 2 2.3765925757 31.2679497682 12.1773645998
108 6 2 2.19487394295 30.6522673378 12.9906071802
109 7 1 41.1840816013 17.8479242078 37.3001206297
110 7 1 37.5681460625 14.1065852712 39.156295245
111 7 2 41.1358923972 18.3517190521 37.526505575
112 7 2 40.8190684309 19.2677942591 37.8924000961
113 7 2 40.2303483747 20.0738054826 38.1702572796
114 7 2 39.4192269435 20.6919763498 38.3530052314
115 7 2 38.4554701429 21.0616516347 38.4422410101
116 7 2 37.4227562845 21.1448258193 38.4480850585
117 7 2 36.4110489315 20.9296071951 38.388258753
118 7 2 35.5083969602 20.4313017607 38.2864691471
119 7 2 34.7929091403 19.6910181207 38.1702481372
120 7 2 34.3256347294 18.7719205465 38.0684430032
121 7 2 34.1449989964 17.7534717217 38.0085870568
122 7 2 34.2633008606 16.7241899307 38.0143900532
123 7 2 34.6655918785 15.7735808539 38.1035771105
124 7 2 35.3110387542 14.983979364 38.2862731126
125 7 2 36.1366451851 14.4230449228 38.5640798528
126 7 2 37.062993807 14.1375946013 38.9299300351
127 8 1 22.0664703043 6.03117232843 29.2386615424
128 8 1 26.5197778335 6.90416008251 32.3888893901
129 8 2 21.9272363118 5.49849329239 29.1734808094
130 8 2 21.8939125642 4.47853558821 28.9945232147
131 8 2 22.1603010479 3.50265392195 28.7705987623
132 8 2 22.7057911538 2.65264489711 28.5395679996
133 8 2 23.4843329057 1.99883216235 28.3399391952
134 8 2 24.428634293 1.59365659889 28.2073584131
135 8 2 25.4562947574 1.46689647433 28.1713604691
136 8 2 26.4773157833 1.62295323313 28.2526769118
137 8 2 27.4023040224 2.04045031676 28.4613463968
138 8 2 28.150619258 2.67418157985 28.7957996902
139 8 2 28.6577245457 3.4592317095 29.2430027004
140 8 2 28.8810685831 4.31689308258 29.7796445002
141 8 2 28.8039641471 5.16183975518 30.3742620559
142 8 2 28.4371090904 5.90990469436 30.9901079987
143 8 2 27.8176112598 6.48575137825 31.5885000489
144 8 2 27.0056062161 6.82974051863 32.1323468026
145 9 1 17.7012129149 15.3438981693 34.893709056
146 9 1 17.0807990474 13.6338187967 40.1099055854
147 9 2 18.0301496052 15.785665785 34.8302770803
148 9 2 18.5093128683 16.7028929818 34.8807433849
149 9 2 18.7859960731 17.662341755 35.1570665057
150 9 2 18.8487222635 18.5730838917 35.6470299703
151 9 2 18.7055160933 19.3486306588 36.3189445601
152 9 2 18.3831724008 19.91481602 37.1245366975
153 9 2 17.9248139306 20.2165566713 38.003348454
154 9 2 17.3859608105 20.2228727373 38.8882481282
155 9 2 16.829470041 19.929711504 39.7115491217
156 9 2 16.3198062466 19.3603168127 40.4111793908
157 9 2 15.9171658987 18.5631104462 40.936339148
158 9 2 15.6719905673 17.6072786125 41.2521311266
159 9 2 15.6203693071 16.5764658071 41.3427413734
160 9 2 15.7807492365 15.5611508405 41.2128806479
161 9 2 16.1522541322 14.6503999367 40.8873550499
162 9 2 16.7147642943 13.9237485849 40.4088050091
163 10 1 28.0234142112 22.5823050799 39.0135370241
164 10 1 24.6599167466 19.182516876 41.7787343111
165 10 2 28.0176198022 23.1088065703 39.1871578563
166 10 2 27.7736708184 24.0687705605 39.4911447673
167 10 2 27.2460033374 24.9188252846 39.7602618546
168 10 2 26.4812209765 25.5793041743 39.9890097246
169 10 2 25.5475397406 25.9878199916 40.1755685302
170 10 2 24.5285703155 26.1049512593 40.3219638443
171 10 2 23.5156971776 25.9178354232 40.4338820352
172 10 2 22.5997491428 25.4413412391 40.5201519684
173 10 2 21.8627205632 24.7167135262 40.5919402797
174 10 2 21.3702977606 23.8078138113 40.6617335662
175 10 2 21.1658718939 22.7952995217 40.742200266
176 10 2 21.2665839714 21.7692722766 40.845035964
177 10 2 21.661762493 20.8210653645 40.979897371
178 10 2 22.3138961294 20.0349189588 41.1535221397
179 10 2 23.1620527793 19.4803018509 41.3691147463
180 10 2 24.1274333677 19.2055795554 41.6260544105
181 11 1 11.4350017223 29.5466052229 36.2066858058
182 11 1 6.46217067082 31.9365619206 35.9291081079
183 11 2 11.6121003945 29.4347891554 36.7200227472
184 11 2 11.8862059633 29.4506141764 37.7190551376
185 11 2 12.050953048 29.7516979041 38.6966322436
186 11 2 12.0750768783 30.3050151018 39.5722509567
187 11 2 11.9401301176 31.0545501263 40.2747014033
188 11 2 11.6421642886 31.9264026039 40.7485575346
189 11 2 11.1920896663 32.835523252 40.9592290626
190 11 2 10.6146808356 33.6934658938 40.8961142724
191 11 2 9.94631855424 34.4164490911 40.5735663402
192 11 2 9.23167374394 34.9329925983 40.02958508
193 11 2 8.51963585512 35.1904325956 39.3223533613
194 11 2 7.85885672433 35.1597218559 38.5249338971
195 11 2 7.29331608932 34.8380773216 37.7186097719
196 11 2 6.85831295349 34.2492337725 36.9854757066
197 11 2 6.57724817609 33.441280465 36.4009553435
198 11 2 6.45949154647 32.4822779239 36.0269265832
199 12 1 34.6951725103 19.4565978407 6.75010243453
200 12 1 31.7938136275 14.8228203896 5.95750277028
201 12 2 35.2408847271 19.407911769 6.66519406681
202 12 2 36.23923975 19.1313433592 6.6494722929
203 12 2 37.1301393549 18.6265733255 6.80744418326
204 12 2 37.8329308187 17.927814871 7.10955474576
205 12 2 38.2841069722 17.0869627249 7.51311113351
206 12 2 38.4430947096 16.1688630766 7.96617398383
207 12 2 38.2959531181 15.2454030188 8.41229155226
208 12 2 37.8566441549 14.3889582313 8.79564513825
209 12 2 37.1657600525 13.6657961309 9.06613681049
210 12 2 36.2868234447 13.1300357739 9.18395569943
211 12 2 35.3004974487 12.8187150486 9.1232066517
212 12 2 34.2972334374 12.7484147707 8.87427050405
213 12 2 33.3690266383 12.9137473862 8.44468084443
214 12 2 32.601031015 13.2878480327 7.85843734555
215 12 2 32.0637977103 13.8248231999 7.15381825888
216 12 2 31.8068444986 14.4639338002 6.37989145433
217 13 1 37.4888480894 14.9727795153 35.4442567896
218 13 1 34.4860197039 10.3448843093 35.1551223733
219 13 2 37.2421906535 15.4245309585 35.2381928895
220 13 2 36.7432653338 16.1302439698 34.6667975079
221 13 2 36.219826877 16.5976734035 33.9045823692
222 13 2 35.7013877584 16.7816118565 33.0266088291
223 13 2 35.2170047773 16.6626913711 32.1184893123
224 13 2 34.7926306068 16.2491487724 31.2685839683
225 13 2 34.4487482775 15.5760749035 30.5599468809
226 13 2 34.1985042038 14.7022161892 30.0627559093
227 13 2 34.0465099232 13.7046200564 29.8279161648
228 13 2 33.9884217674 12.6716122667 29.8824201455
229 13 2 34.0113367756 11.69474626 30.2268874421
230 13 2 34.0949687652 10.8604583023 30.8355082643
231 13 2 34.2134973631 10.2421890519 31.6583959338
232 13 2 34.3379214636 9.89368963891 32.6261339219
233 13 2 34.4387026014 9.84412239411 33.6561029805
234 13 2 34.4884573046 10.09540278 34.6600116658
235 14 1 25.1094726023 19.356468433 3.07679409344
236 14 1 21.8545736452 15.9630004805 5.97644908939
237 14 2 25.0933340074 19.8875407486 3.23517126799
238 14 2 24.8304679913 20.8501529505 3.51397086912
239 14 2 24.2861489598 21.6954480599 3.76425666788
240 14 2 23.5087486034 22.3447158411 3.98231639688
241 14 2 22.5678833526 22.7371134253 4.16737510886
242 14 2 21.5480690258 22.8352109755 4.32166581105
243 14 2 20.541017439 22.6284033165 4.45022593257
244 14 2 19.6372771184 22.1338765676 4.56043817614
245 14 2 18.9179800442 21.3950416745 4.66135760458
246 14 2 18.4474466882 20.477577617 4.76288629591
247 14 2 18.2673233736 19.4634449459 4.87487079552
248 14 2 18.3927863248 18.4434152978 5.00620462978
249 14 2 18.811158395 17.5087978029 5.16401768495
250 14 2 19.4830645537 16.743116502 5.35302633706
251 14 2 20.3460208161 16.2144973534 5.57510356686
252 14 2 21.3201294911 15.9694587336 5.82910824264
253 15 1 19.9245024965 30.889993076 19.96379032
254 15 1 14.6216033978 29.4090205609 20.4154236002
255 15 2 20.0182203422 31.4354978765 19.9957757247
256 15 2 20.0237510464 32.4664422072 19.8929496118
257 15 2 19.7984522768 33.434080574 19.5990678895
258 15 2 19.3502443987 34.2555550845 19.1543889741
259 15 2 18.7073653471 34.8613302911 18.6129160429
260 15 2 17.915796814 35.2015311614 18.0374747892
261 15 2 17.0350731405 35.2504890537 17.4939870278
262 15 2 16.13285492 35.0090813454 17.0454620984
263 15 2 15.2787619168 34.5046514625 16.7462537323
264 15 2 14.5380274102 33.788516599 16.6371058551
265 15 2 13.9655523553 32.9312902921 16.7414388868
266 15 2 13.6009013082 32.016446187 17.0632150331
267 15 2 13.4646962219 31.1327096372 17.5865771411
268 15 2 13.5567368108 30.3659706256 18.2772940363
269 15 2 13.856018806 29.7914551223 19.0858806024
270 15 2 14.3226484384 29.4668684383 19.952108218
271 16 1 37.1767635668 2.04080224096 7.32325509344
272 16 1 36.2652713569 3.56913684208 12.5531084719
273 16 2 37.2472597108 2.45930012744 6.96650391862
274 16 2 37.1801024649 3.32176400211 6.3963320319
275 16 2 36.8691619057 4.22967731114 6.00587153058
276 16 2 36.3528892524 5.11275152676 5.8412735706
277 16 2 35.6884511961 5.90296213815 5.92810254097
278 16 2 34.946519308 6.54074890385 6.26900593798
279 16 2 34.2048285151 6.98044460849 6.84347305302
280 16 2 33.5410917693 7.1944375075 7.60970446884
281 16 2 33.0259167193 7.1756880638 8.50842196472
282 16 2 32.7163700124 6.93837058275 9.46827156785
283 16 2 32.650775822 6.51658126215 10.4123272772
284 16 2 32.8452227017 5.96123041493 11.265102663
285 16 2 33.2920971565 5.3354021302 11.959431253
286 16 2 33.9607775926 4.70860432709 12.4425885769
287 16 2 34.8004253939 4.15043329379 12.6810978607
288 16 2 35.744618726 3.72423017182 12.6637813457
289 17 1 35.5706095911 10.1137138313 21.2697889241
290 17 1 31.8176710027 7.7178326753 24.5398342601
291 17 2 35.6552942111 10.6528656052 21.3673874275
292 17 2 35.5789775474 11.6721831929 21.536554308
293 17 2 35.2039467848 12.6255420033 21.6911793932
294 17 2 34.5632949633 13.426756224 21.8363380211
295 17 2 33.7143257721 14.0035076153 21.9779683719
296 17 2 32.7333304723 14.3039371245 22.1223302192
297 17 2 31.7086341517 14.3013716999 22.2754343674
298 17 2 30.7325451293 13.9967554682 22.4424947841
299 17 2 29.8929412988 13.4185636797 22.62745336
300 17 2 29.2652602937 12.6202072656 22.8326206165
301 17 2 28.905623548 11.6751645745 23.0584651079
302 17 2 28.8457209781 10.6702840167 23.3035707135
303 17 2 29.0899225315 9.69786806445 23.5647657139
304 17 2 29.6148798774 8.8472601277 23.8374118841
305 17 2 30.371654545 8.19670114152 24.1158272557
306 17 2 31.2901785343 7.8061981138 24.393804013
307 18 1 24.6212413555 23.9483165996 33.1910760796
308 18 1 21.953007976 20.0986933499 36.1200558557
309 18 2 24.4355633443 24.4659281555 33.2616702816
310 18 2 23.8790810233 25.3353654059 33.350306083
311 18 2 23.0924478538 26.008384082 33.3915871851
312 18 2 22.143349386 26.4238139437 33.4005392528
313 18 2 21.1142794477 26.5439632826 33.395134656
314 18 2 20.0950210527 26.3580544211 33.3946543364
315 18 2 19.1744629189 25.8832060682 33.4179304007
316 18 2 18.4324974989 25.1628729956 33.481629625
317 18 2 17.9327389971 24.2628852507 33.5987343223
318 18 2 17.7167251045 23.2654479244 33.7773590393
319 18 2 17.8001309492 22.2616483765 34.0200109376
320 18 2 18.1713403509 21.343153866 34.3233612722
321 18 2 18.7925046041 20.5938563261 34.678548798
322 18 2 19.6029922865 20.082225838 35.0719874482
323 18 2 20.5249156516 19.8550697668 35.4866046685
324 18 2 21.470229888 19.9332663943 35.9033975345
325 19 1 17.4377968708 6.47310134357 33.3608827966
326 19 1 16.3551735031 9.90117183491 29.1663327121
327 19 2 17.9748314038 6.42354570739 33.4894119268
328 19 2 19.0024958414 6.29214180442 33.4988368478
329 19 2 19.9841566822 6.13619918195 33.2064776451
330 19 2 20.8366030408 5.98793282445 32.6365633497
331 19 2 21.4884015865 5.87885804536 31.8386213972
332 19 2 21.8864075007 5.83691795047 30.882963335
333 19 2 22.0006084845 5.88393649859 29.8542761121
334 19 2 21.8268603 6.03362930594 28.8439030903
335 19 2 21.3872645064 6.29035350446 27.9415183413
336 19 2 20.728153962 6.64871060085 27.2269530938
337 19 2 19.9158697077 7.09403853481 26.7629193314
338 19 2 19.0307141589 7.60374808663 26.5892937622
339 19 2 18.1596317544 8.14938182425 26.7194831638
340 19 2 17.388284204 8.69920792204 27.1392023911
341 19 2 16.7932426516 9.221112432 27.8077764293
342 19 2 16.435008421 9.68552638418 28.6618478129
343 20 1 12.0275580266 24.4450287785 32.1664136459
344 20 1 6.69969607921 24.6152915102 33.6165476857
345 20 2 12.3030470177 24.9215625796 32.2327683005
346 20 2 12.6364488799 25.9025170476 32.2374095456
347 20 2 12.7016756793 26.9274790052 32.1008501763
348 20 2 12.4852399019 27.9096404016 31.851923366
349 20 2 11.9993268249 28.7660943428 31.5297042801
350 20 2 11.2806838609 29.4253918335 31.1799484792
351 20 2 10.3872711297 29.8340541616 30.8509214216
352 20 2 9.39297854855 29.9614473406 30.5889991963
353 20 2 8.38089096299 29.8025743147 30.434441466
354 20 2 7.43571518589 29.3785304279 30.4177219068
355 20 2 6.63605919755 28.7345806394 30.5567506137
356 20 2 6.04726723848 27.9360337434 30.8552416438
357 20 2 5.71546385652 27.0622896474 31.3023744894
358 20 2 5.66334977754 26.1996022827 31.8737803387
359 20 2 5.88813279503 25.433217789 32.5337632279
360 20 2 6.36178227219 24.8396045567 33.2385536325
361 21 1 36.3928025582 3.84627693984 14.8666693181
362 21 1 34.6714986802 7.83821067071 11.4579204113
363 21 2 36.6913208716 3.44600467213 14.6257325705
364 21 2 37.0701065412 2.69321257826 14.0230091754
365 21 2 37.1952843094 2.00308302507 13.2604465633
366 21 2 37.0658885499 1.44852244186 12.3949008925
367 21 2 36.7041573332 1.09008050865 11.4926149519
368 21 2 36.1535054858 0.970431214694 10.6231803077
369 21 2 35.4745674445 1.11048323842 9.8531942183
370 21 2 34.73967059 1.50747417728 9.24018947202
371 21 2 34.0262427993 2.13522233331 8.82739042744
372 21 2 33.4097551015 2.946513105 8.6397732285
373 21 2 32.9568426952 3.87740247198 8.68178929578
374 21 2 32.7192313288 4.85304532157 8.93695959137
375 21 2 32.7290226358 5.79451738076 9.36937663919
376 21 2 32.9957681578 6.62600895277 9.92697739541
377 21 2 33.5055987462 7.28173476827 10.5462886558
378 21 2 34.2224886983 7.71193013686 11.1582124686
379 22 1 33.7582434987 23.6939122141 12.5728312014
380 22 1 34.2732599379 21.7350867717 17.7124568701
381 22 2 33.5453421482 24.2046205321 12.5377368011
382 22 2 32.9808040459 25.0701695835 12.61237983
383 22 2 32.2524314053 25.7584273185 12.875485508
384 22 2 31.4346863117 26.2152993166 13.3182167477
385 22 2 30.6101769108 26.4077813487 13.9153640715
386 22 2 29.8621278967 26.3269676247 14.6276433886
387 22 2 29.2667948036 25.988862532 15.4052766349
388 22 2 28.8865135178 25.4329218788 16.1925289102
389 22 2 28.7640185279 24.7184566021 16.9327885653
390 22 2 28.9185477909 23.9192267349 17.5737272031
391 22 2 29.3440892434 23.1167183759 18.0720692715
392 22 2 30.0099287854 22.3927164497 18.3975365147
393 22 2 30.8634497882 21.8218502294 18.5356077552
394 22 2 31.8349289596 21.4647910776 18.4888424601
395 22 2 32.8438914356 21.3627224142 18.2766474529
396 22 2 33.8064458492 21.5335859576 17.933508033
397 23 1 22.986142819 29.7036135409 33.4082548087
398 23 1 23.9644104854 24.3779736953 34.5030350008
399 23 2 22.7400700452 29.9848981295 33.8177774067
400 23 2 22.1291339205 30.3302713756 34.5799613632
401 23 2 21.3786614177 30.408053033 35.2900254783
402 23 2 20.5655718005 30.2036897818 35.8987708661
403 23 2 19.7724917149 29.7283450564 36.3662335717
404 23 2 19.0802239918 29.0178815284 36.6653271792
405 23 2 18.5603826846 28.1295923196 36.7843116661
406 23 2 18.2688656398 27.1369788876 36.7278634746
407 23 2 18.2407595575 26.1230515639 36.5166492669
408 23 2 18.4871419328 25.1727633843 36.1854422136
409 23 2 18.9940713715 24.3652668468 35.7799525129
410 23 2 19.7238583107 23.7666993729 35.3526610273
411 23 2 20.6185003223 23.4241550581 34.958035794
412 23 2 21.6049688788 23.3613921716 34.6475674087
413 23 2 22.6018657086 23.5766676529 34.4650757951
414 23 2 23.5268420308 24.0428959876 34.4427161363
415 24 1 28.841845403 33.5050895268 9.54560894459
416 24 1 32.8810293333 31.5909456002 12.7919972866
417 24 2 28.7879739418 34.0568622917 9.54048355803
418 24 2 28.6878720893 35.0633850033 9.7648530335
419 24 2 28.612005735 35.962058838 10.2748330784
420 24 2 28.5856240923 36.6766850974 11.0245419082
421 24 2 28.6294659756 37.1478405275 11.9462471003
422 24 2 28.7578695124 37.3382935896 12.9565392235
423 24 2 28.9774652617 37.2363980157 13.9639343843
424 24 2 29.286571856 36.8571543346 14.87721274
425 24 2 29.6753492533 36.2408426136 15.6137329427
426 24 2 30.1266956312 35.4493510385 16.1069646782
427 24 2 30.6178061717 34.5605349703 16.3125527254
428 24 2 31.1222516597 33.6611206377 16.2123598168
429 24 2 31.6123874355 32.8388002725 15.8161198016
430 24 2 32.061873131 32.1742391978 15.1605504318
431 24 2 32.4480735247 31.7337233989 14.3060066365
432 24 2 32.7541216809 31.563117733 13.3309793323
433 25 1 28.2203905209 7.6117815338 34.6563199063
434 25 1 27.3436554193 7.1758442332 29.2194747464
435 25 2 28.0486894902 7.17816923354 34.9561210357
436 25 2 27.5273045168 6.39915637892 35.3974221722
437 25 2 26.7917453047 5.7108153209 35.6394743245
438 25 2 25.9135343874 5.16116961151 35.6487041664
439 25 2 24.9771966201 4.78560109243 35.4127595029
440 25 2 24.0725549652 4.60362493475 34.9416351399
441 25 2 23.286543369 4.61711088322 34.2667618844
442 25 2 22.6952829651 4.81011283404 33.4381417103
443 25 2 22.3571438364 5.15032227961 32.5197902122
444 25 2 22.3074247381 5.59201314263 31.5839017552
445 25 2 22.5551357107 6.08020958584 30.7042691511
446 25 2 23.0821768383 6.55569691263 29.9495576413
447 25 2 23.8449880083 6.96041882839 29.3770462432
448 25 2 24.7785192987 7.2427691166 29.0274069209
449 25 2 25.802160105 7.3622954075 28.9209974448
450 25 2 26.8270865811 7.29338630351 29.0560058345
451 26 1 34.8119543501 39.7913713077 17.0791527869
452 26 1 35.3447163773 40.9239614787 22.4598028581
453 26 2 34.5215457092 39.3332183718 16.9645216538
454 26 2 34.1237686845 38.3782714275 16.907077914
455 26 2 33.9340224911 37.372607893 17.0685933889
456 26 2 33.9557666347 36.4086125442 17.4476582527
457 26 2 34.1731838422 35.5748722133 18.0230336343
458 26 2 34.5526217637 34.9481013356 18.7555874833
459 26 2 35.0456602941 34.586149634 19.5918613526
460 26 2 35.5935249366 34.5227292713 20.4689429921
461 26 2 36.1324439408 34.7643420767 21.3202006325
462 26 2 36.5994609272 35.2896869212 22.0813562933
463 26 2 36.9381731932 36.0516012591 22.6963445482
464 26 2 37.1038726684 36.9813598675 23.1224227397
465 26 2 37.067620936 37.9949389668 23.3340668574
466 26 2 36.8188868919 39.0006747637 23.3252979837
467 26 2 36.3665066268 39.9076183612 23.1102272559
468 26 2 35.7378780402 40.6338255069 22.7217696742
469 27 1 11.8212922201 22.0792820047 30.2012703572
470 27 1 9.0577855727 19.8730296952 34.4454985342
471 27 2 11.7416079002 22.6230317232 30.1280020773
472 27 2 11.3652764042 23.5802067293 30.002939597
473 27 2 10.723872926 24.3894862592 29.918569983
474 27 2 9.87512241264 24.9834170602 29.9007155469
475 27 2 8.89564893913 25.3141743405 29.9691359197
476 27 2 7.87399162895 25.3579208713 30.1357270143
477 27 2 6.90253454956 25.1169796866 30.4034367444
478 27 2 6.06908615153 24.6196223448 30.7659963306
479 27 2 5.44887576301 23.9174920516 31.2084916825
480 27 2 5.09769663751 23.0808965198 31.7087227784
481 27 2 5.04682054797 22.1923996096 32.2392271377
482 27 2 5.30014744825 21.3392958529 32.7697829529
483 27 2 5.83385000274 20.6056537903 33.2701637264
484 27 2 6.59854538433 20.0646533482 33.7128933349
485 27 2 7.52379638713 19.7719156844 34.0757504048
486 27 2 8.52453158947 19.7604334678 34.343793731
487 28 1 22.4488558515 18.7102055516 18.3411346542
488 28 1 23.068951875 16.1919812845 13.4634283773
489 28 2 22.3880108043 18.3691829259 18.7740122779
490 28 2 22.1096276215 17.6326545516 19.4474206002
491 28 2 21.6504817856 16.8147003672 19.8874047643
492 28 2 21.0645867835 15.9756903196 20.0493899419
493 28 2 20.4175089502 15.1779135414 19.9141401693
494 28 2 19.7803912719 14.479900863 19.4895116541
495 28 2 19.2234688936 13.9310898835 18.8097367027
496 28 2 18.8096673729 13.5673188661 17.9323035374
497 28 2 18.5888671836 13.4075601761 16.9327163984
498 28 2 18.5933572444 13.4521910002 15.8976135339
499 28 2 18.8348918694 13.6829589673 14.9168703557
500 28 2 19.3036193945 14.0646458033 14.0754075357
501 28 2 19.9689801299 14.5482773825 13.4454507129
502 28 2 20.7824917944 15.0755875882 13.0799473204
503 28 2 21.6821685453 15.5843291138 13.0077405678
504 28 2 22.5981708228 16.0139471383 13.2309404599
505 29 1 30.4423796545 20.681014113 22.4391274936
506 29 1 25.4469488285 22.1664171962 24.2714046571
507 29 2 30.749586265 21.0955930206 22.236322129
508 29 2 31.1298818494 21.9171566004 21.7324783397
509 29 2 31.224892096 22.7455190289 21.1174671599
510 29 2 31.0216069335 23.5195042391 20.4593850614
511 29 2 30.53420512 24.182892502 19.8302543151
512 29 2 29.8027618866 24.6895447049 19.2994583535
513 29 2 28.8895961879 25.0076078081 18.9274176565
514 29 2 27.8735904953 25.122418164 18.7600825855
515 29 2 26.8430008709 25.03783807 18.8247451318
516 29 2 25.887412663 24.7759037298 19.1275513235
517 29 2 25.0895750417 24.3748167129 19.6529410321
518 29 2 24.5178586322 23.8854619831 20.3650662365
519 29 2 24.2200237159 23.3667698704 21.2110584741
520 29 2 24.2188670082 22.880344729 22.1258476602
521 29 2 24.5101437986 22.4848498646 23.038093052
522 29 2 25.0629548448 22.2306605315 23.8766857668
523 30 1 10.0300160742 8.09597029846 19.9791939337
524 30 1 15.3724717489 6.89064060962 20.7026155028
525 30 2 9.90879220732 8.33921580135 19.4959569447
526 30 2 9.8582337197 8.93822465844 18.6521072901
527 30 2 10.0496276502 9.66848942928 17.9425075867
528 30 2 10.4772547962 10.4541858911 17.4197589807
529 30 2 11.1138639284 11.2144373707 17.1194316399
530 30 2 11.9131556686 11.8706864369 17.0568226283
531 30 2 12.8140025534 12.3538552007 17.2255616198
532 30 2 13.7460206392 12.6106415798 17.5981915358
533 30 2 14.6359848112 12.6083776414 18.1286711851
534 30 2 15.4145030561 12.3380071967 18.7565717952
535 30 2 16.0223413591 11.8149112484 19.4125849334
536 30 2 16.4158227259 11.0775060534 20.0248397851
537 30 2 16.5708082241 10.1837415834 20.5254539867
538 30 2 16.4848971821 9.20581954049 20.8567209213
539 30 2 16.1776460043 8.22361236428 20.976369523
540 30 2 15.6887856566 7.31738307296 20.861417171
541 31 1 19.0782648717 36.2791799397 23.4379690996
542 31 1 19.3188527628 31.6670146424 26.4691470551
543 31 2 19.086503116 36.7508369805 23.7292650921
544 31 2 18.9299534788 37.5283016621 24.3959665929
545 31 2 18.5737042033 38.1050858598 25.1794565125
546 31 2 18.0626938099 38.4243474106 26.0223031482
547 31 2 17.4559668814 38.4527166526 26.8616645908
548 31 2 16.8212923067 38.1833379805 27.6350165976
549 31 2 16.2289863281 37.6364947152 28.2858515092
550 31 2 15.7455034036 36.857760334 28.7688287721
551 31 2 15.4273790607 35.9138445695 29.0539076088
552 31 2 15.316076834 34.8865129959 29.1290851545
553 31 2 15.4342089753 33.8651343154 29.0014904859
554 31 2 15.7834754066 32.93853464 28.6967348252
555 31 2 16.3445087774 32.1869012287 28.2565771455
556 31 2 17.0786397466 31.6744736331 27.735117952
557 31 2 17.9314215896 31.443688434 27.1938681656
558 31 2 18.8375928719 31.5113112607 26.6961425668
559 32 1 34.902587753 18.0425238963 34.4589479156
560 32 1 31.6242469459 13.6825123034 35.3311700913
561 32 2 34.68603949 18.5309423244 34.6070555685
562 32 2 34.0977595148 19.3706685456 34.7561748342
563 32 2 33.3108756926 20.0444998296 34.7415030171
564 32 2 32.3876998906 20.4863897903 34.5804759618
565 32 2 31.4029666258 20.6514328731 34.3038694015
566 32 2 30.4370212132 20.5199573765 33.9529938327
567 32 2 29.5684965053 20.0993184749 33.5759291732
568 32 2 28.8671457179 19.4232278142 33.2231424067
569 32 2 28.3874846106 18.5486807854 32.9428876515
570 32 2 28.1638225212 17.5507615471 32.7768079273
571 32 2 28.2071351614 16.515799305 32.7561395046
572 32 2 28.5040642097 15.5334996354 32.8988648026
573 32 2 29.0181348869 14.6887680623 33.2080733395
574 32 2 29.6930805348 14.0539711449 33.6716801312
575 32 2 30.4579711713 13.68234046 34.2635272054
576 32 2 31.2336785694 13.6031206855 34.9457678309
577 33 1 37.5283950749 33.2199766218 24.7828684921
578 33 1 34.1747429018 32.8003988 29.1526468177
579 33 2 37.4069718866 33.6334806312 24.4340814057
580 33 2 36.9633527478 34.3152608931 23.7923433398
581 33 2 36.2700748563 34.8361984085 23.2253866559
582 33 2 35.3850064895 35.1627174296 22.7970301149
583 33 2 34.383497114 35.2789629346 22.5584594451
584 33 2 33.351509483 35.1882457708 22.5435618999
585 33 2 32.3777843614 34.9127408795 22.7658375251
586 33 2 31.5457520418 34.4914661097 23.217168666
587 33 2 30.9259278971 33.9767258448 23.8685598698
588 33 2 30.5694850917 33.4293435987 24.6727807439
589 33 2 30.5035902852 32.9131181143 25.5686708794
590 33 2 30.7289274637 32.4890082792 26.4867144595
591 33 2 31.219635596 32.2095768856 27.35537644
592 33 2 31.9256657979 32.1141996725 28.1076227775
593 33 2 32.7773431541 32.2254763324 28.6870304035
594 33 2 33.6917174005 32.5471706094 29.0529300358