LAMMPS input file for bananas

648 atoms

2 atom types

0 42.5063427673 xlo xhi
0 42.5063427673 ylo yhi
0 42.5063427673 zlo zhi

Masses

 1 1
 2 1

Atoms

1 1 1 29.9674437278 2.21110928667 2.0669892915
2 1 1 26.5613713703 0.670145089919 6.13418629941
3 1 2 30.2415281831 2.68427064795 2.15851866181
4 1 2 30.5395571829 3.65140608244 2.38050464739
5 1 2 30.5394716681 4.64722595086 2.66649904162
6 1 2 30.2451815044 5.57964168626 3.00920037967
7 1 2 29.6874125251 6.36234383897 3.39613851039
8 1 2 28.9209059531 6.92266895221 3.81081121718
9 1 2 28.0194288851 7.20822264199 4.23418835096
10 1 2 27.0690506179 7.19165520518 4.64644637742
11 1 2 26.1602976616 6.87315447184 5.02877523914
12 1 2 25.3799024908 6.28042868499 5.36509284207
13 1 2 24.8028981106 5.46618096835 5.64351089544
14 1 2 24.4857789996 4.50330557749 5.85741849766
15 1 2 24.4613517885 3.47824378319 6.00608470234
16 1 2 24.7357450236 2.48310498074 6.0947251421
17 1 2 25.2878505663 1.60727116467 6.13402663761
18 1 2 26.0712475433 0.929249998883 6.13917312242
19 2 1 21.672576251 26.5091247873 7.32937678075
20 2 1 16.5517327615 28.4727333593 6.66665935005
21 2 2 22.0769990656 26.8518425268 7.16699351144
22 2 2 22.705506824 27.5057432142 6.66615231926
23 2 2 23.1128804994 28.1389653752 5.9544456419
24 2 2 23.2551050281 28.7108509374 5.10229008193
25 2 2 23.1123329824 29.1863324955 4.19290378223
26 2 2 22.6906936108 29.5391296115 3.31472131462
27 2 2 22.0217341729 29.7541442063 2.55333310502
28 2 2 21.1595444917 29.8288367095 1.98368409491
29 2 2 20.1758268101 29.7734575343 1.6632427102
30 2 2 19.1533603236 29.6101127795 1.62676276783
31 2 2 18.1784560776 29.3707493182 1.88311575821
32 2 2 17.3330899464 29.0942429253 2.41448223264
33 2 2 16.6874307515 28.8228548546 3.17797599835
34 2 2 16.2934445608 28.5983798385 4.10955308044
35 2 2 16.1801581205 28.45833661 5.12984915893
36 2 2 16.3510131449 28.4325481702 6.15141341446
37 3 1 9.35638136375 6.22839984819 6.1391516181
38 3 1 5.49729121394 7.42060337627 9.90797968856
39 3 2 9.64571553493 5.76617765936 6.23924144566
40 3 2 10.2144406544 4.9981108119 6.639335269
41 3 2 10.7623994006 4.40588893855 7.28930794257
42 3 2 11.2260861836 4.03185574335 8.13697754055
43 3 2 11.5496765777 3.89846761547 9.11214259087
44 3 2 11.6901155686 4.0062467894 10.1329807517
45 3 2 11.621041903 4.33373374465 11.1135066994
46 3 2 11.335190846 4.83944318369 11.9714094606
47 3 2 10.8450563427 5.46564530592 12.6355548378
48 3 2 10.1817522285 6.14362772475 13.0524691011
49 3 2 9.39217628559 6.79995841793 13.1912129758
50 3 2 8.53473563618 7.36317886013 13.0462016749
51 3 2 7.67402308895 7.77031727655 12.6377139369
52 3 2 6.87492967735 7.97262835186 12.0100436735
53 3 2 6.19673001532 7.94003623542 11.2274626978
54 3 2 5.68767957463 7.66387587467 10.3683625202
55 4 1 21.5140876387 37.6722447934 16.8195157673
56 4 1 18.9080274223 36.9280804768 12.0057167811
57 4 2 21.7716264027 37.2230047927 17.0176036136
58 4 2 22.0454210203 36.279989383 17.3480706401
59 4 2 22.0342921343 35.2719056029 17.5870125813
60 4 2 21.7462201817 34.2827348035 17.696583065
61 4 2 21.2144282197 33.3947344684 17.6507275819
62 4 2 20.4943537331 32.6809406639 17.4375582841
63 4 2 19.6585956554 32.1985109964 17.0604375306
64 4 2 18.7902971704 31.9835148498 16.5376714174
65 4 2 17.975567433 32.0476457572 15.9008412259
66 4 2 17.2956329498 32.3771555669 15.1919248732
67 4 2 16.8194340005 32.9341075495 14.4594707375
68 4 2 16.5973409152 33.6598342293 13.7541726028
69 4 2 16.6565629538 34.4802847683 13.1242490563
70 4 2 16.9986682544 35.3127745018 12.6110484931
71 4 2 17.5994409021 36.0735214246 12.24528032
72 4 2 18.4110881444 36.6852826971 12.0442158759
73 5 1 8.4936349966 27.2438448166 20.9154829129
74 5 1 6.04947237278 24.0942252451 24.7396111383
75 5 2 8.31229044206 27.7672968667 20.8932637355
76 5 2 7.76157630604 28.6434952396 20.843863707
77 5 2 6.9783663008 29.320574119 20.8039101092
78 5 2 6.03138194575 29.7408149713 20.7956476328
79 5 2 5.00427235456 29.8699093628 20.8384324075
80 5 2 3.98798984199 29.7000860813 20.9469677424
81 5 2 3.07249986356 29.2508194619 21.1299639588
82 5 2 2.33858090468 28.5670543527 21.3893444678
83 5 2 1.85046173762 27.7151095126 21.7200704562
84 5 2 1.64996714059 26.7766328335 22.1106001611
85 5 2 1.752705681 25.8411593529 22.5439408708
86 5 2 2.14664703626 24.9979503751 22.9991977647
87 5 2 2.79321852552 24.3278575413 23.4534784209
88 5 2 3.63082090643 23.8959534191 23.8839793987
89 5 2 4.58044298144 23.7456003114 24.2700647116
90 5 2 5.55286325731 23.894497899 24.5951467423
91 6 1 10.8412025858 35.4376615498 1.64518581404
92 6 1 12.2746855718 32.5555306945 6.13477814783
93 6 2 10.6149970971 35.9332553562 1.74813941508
94 6 2 10.05412715 36.7362936414 2.08578483001
95 6 2 9.36804209226 37.3204212528 2.59718705749
96 6 2 8.62966047572 37.6383776064 3.25075140529
97 6 2 7.91666754399 37.667162917 4.00192548389
98 6 2 7.30443442986 37.4101345671 4.79726003769
99 6 2 6.85914827807 36.8967010903 5.57928070182
100 6 2 6.63177946395 36.1796416624 6.29172663685
101 6 2 6.65343577995 35.3302954202 6.88467855395
102 6 2 6.93252704347 34.4320590901 7.31910872467
103 6 2 7.45399856454 33.5727855996 7.57043825402
104 6 2 8.18070334051 32.8367765171 7.63077738111
105 6 2 9.05678790611 32.29709819 7.50964460972
106 6 2 10.0127832275 32.0089219418 7.23309912217
107 6 2 10.971936619 32.004495354 6.84136555447
108 6 2 11.8572075453 32.2902029848 6.38516762824
109 7 1 31.85639895 32.762137465 2.90942185179
110 7 1 35.8800423414 28.9932462334 3.26119422673
111 7 2 31.6210050723 32.8983111696 3.39256575643
112 7 2 31.161631577 32.9197515748 4.32098716507
113 7 2 30.7266459944 32.6375319985 5.21797638728
114 7 2 30.3708221912 32.0773645604 6.01362195763
115 7 2 30.14171865 31.290295585 6.64724961367
116 7 2 30.0753436397 30.3480528653 7.0729525928
117 7 2 30.192873159 29.3365078665 7.26377591101
118 7 2 30.4987207999 28.3478487713 7.21417323757
119 7 2 30.9801354611 27.4721777734 6.94051242831
120 7 2 31.6083635767 26.7892985034 6.4795836393
121 7 2 32.3412699267 26.3614421412 5.8852460024
122 7 2 33.1271781499 26.2275952103 5.22351850941
123 7 2 33.909580906 26.3999460604 4.56656255741
124 7 2 34.6322903687 26.8627739318 3.98610463023
125 7 2 35.2445595957 27.5738818606 3.54689862123
126 7 2 35.7057079772 28.4684428195 3.30082368897
127 8 1 13.1101755824 6.44727617015 24.0457858637
128 8 1 15.1513638771 8.65716120971 19.4124339972
129 8 2 13.4910716598 6.27846059309 24.4115741457
130 8 2 14.2945153186 5.85300440194 24.908479899
131 8 2 15.1634419113 5.33079583116 25.1222900865
132 8 2 16.0319731926 4.77318229111 25.0318989117
133 8 2 16.8342669489 4.24473826042 24.6439277191
134 8 2 17.5105183397 3.80737949496 23.9921214766
135 8 2 18.0124109497 3.51471957207 23.1342730116
136 8 2 18.3075206999 3.40718315637 22.1469553496
137 8 2 18.3822712167 3.50832139958 21.1185422871
138 8 2 18.2431712815 3.82266531601 20.1411533566
139 8 2 17.9162215727 4.33531279267 19.3022573775
140 8 2 17.4445447738 5.01328687713 18.6766999066
141 8 2 16.8844550555 5.80854153848 18.3198812661
142 8 2 16.3003251899 6.66234093473 18.2627069519
143 8 2 15.7587191441 7.51061302776 18.5087706805
144 8 2 15.322324953 8.28978957839 19.0340268314
145 9 1 32.9224256139 5.53293117305 5.54205986077
146 9 1 31.3490686681 1.45690525679 8.92267396364
147 9 2 32.7667666828 6.04094155178 5.70041812648
148 9 2 32.2639892704 6.8900469411 6.01614731843
149 9 2 31.5288967297 7.54027170458 6.3482568254
150 9 2 30.6306989707 7.93133992928 6.68553481249
151 9 2 29.6534725085 8.02659712813 7.01629835167
152 9 2 28.6884971131 7.81635119844 7.32945828941
153 9 2 27.8259359027 7.31875583113 7.61552999341
154 9 2 27.146617216 6.57815585035 7.86749785148
155 9 2 26.7146673255 5.66104530127 8.08145472581
156 9 2 26.5716654992 4.6500066956 8.2569580782
157 9 2 26.7328541614 3.63618383634 8.39707030617
158 9 2 27.185749586 2.71097430378 8.50807961365
159 9 2 27.8912797557 1.95769881032 8.59892685798
160 9 2 28.7873456711 1.44400674024 8.68039061467
161 9 2 29.7944815088 1.21571008912 8.76410473906
162 9 2 30.8230977191 1.29260782289 8.86149797147
163 10 1 22.3479181476 4.89402579963 32.717298796
164 10 1 19.095074654 0.434883401194 32.4869743767
165 10 2 22.1038093812 5.36915200274 32.5688144893
166 10 2 21.5821372331 6.13318210697 32.1023745886
167 10 2 21.0026567743 6.67358796813 31.4348313958
168 10 2 20.4006072206 6.93895863804 30.6344785027
169 10 2 19.8132849004 6.9029518911 29.7817147502
170 10 2 19.2766437943 6.56669524774 28.9617160891
171 10 2 18.8220184256 5.95868320396 28.2566720196
172 10 2 18.4732678025 5.13218003416 27.7382942381
173 10 2 18.2446007328 4.16036489491 27.4612803078
174 10 2 18.1392807297 3.1296617404 27.4583281221
175 10 2 18.1493285507 2.13186201002 27.7371555787
176 10 2 18.2562494847 1.25575808401 28.279797114
177 10 2 18.4327190951 0.579050095285 29.0442412165
178 10 2 18.6450737694 0.161263770022 29.9682596632
179 10 2 18.8563790675 0.038324816813 30.9750794564
180 10 2 19.029796197 0.219284394343 31.9803804768
181 11 1 36.807771629 6.71053850732 6.20001914508
182 11 1 32.3089975335 9.81689367191 5.40655818823
183 11 2 37.1458504055 6.6729233869 5.7622184694
184 11 2 37.5796631215 6.5471194033 4.8297862218
185 11 2 37.7213884037 6.37450468687 3.81807078986
186 11 2 37.5572007914 6.1886155328 2.81211966702
187 11 2 37.1011579666 6.02419816579 1.89645494534
188 11 2 36.3939194337 5.91404171454 1.14736935276
189 11 2 35.4990405147 5.8859895703 0.625972374791
190 11 2 34.497179451 5.9604015362 0.372620288314
191 11 2 33.478745621 6.14829808558 0.403237794752
192 11 2 32.535658966 6.45035587529 0.707866526125
193 11 2 31.7529717339 6.8568460703 1.25157272366
194 11 2 31.2011161939 7.34852110092 1.97763135656
195 11 2 30.9294849233 7.89836902739 2.81269645691
196 11 2 30.9619288065 8.47407560597 3.67348640864
197 11 2 31.2945830901 9.0409696459 4.47437484424
198 11 2 31.8962196452 9.56518319576 5.13519525928
199 12 1 28.5031046472 13.6972181439 14.265804431
200 12 1 25.1772921042 13.5598426754 18.674669361
201 12 2 28.3426561364 13.3776310325 13.8421277363
202 12 2 28.0266598259 12.6146240666 13.2164946865
203 12 2 27.6990037633 11.6999553713 12.8566715443
204 12 2 27.3704751747 10.7192286235 12.7958930632
205 12 2 27.0519408144 9.76406851509 13.0401368753
206 12 2 26.7533564896 8.92376940712 13.5675786459
207 12 2 26.4828596149 8.27715638746 14.330581303
208 12 2 26.2460275092 7.8854005747 15.2600370298
209 12 2 26.0453690375 7.7864435342 16.2716662568
210 12 2 25.8800959347 7.9915390058 17.2736995199
211 12 2 25.746194654 8.48422715553 18.175242001
212 12 2 25.6367921908 9.22183484546 18.8945583486
213 12 2 25.5427825388 10.1393651762 19.3665226361
214 12 2 25.4536566782 11.1554217806 19.548554416
215 12 2 25.3584604445 12.1796278848 19.424499814
216 12 2 25.2467929715 13.1208639101 19.0061039113
217 13 1 19.4709677366 22.0844616367 33.8095226882
218 13 1 21.0423441575 26.6232520532 36.538652359
219 13 2 19.5244917862 22.1129908254 33.2584302734
220 13 2 19.5082098635 22.3691117861 32.2546439597
221 13 2 19.3564319716 22.8756456899 31.3636687148
222 13 2 19.0994593744 23.596153068 30.6648953513
223 13 2 18.7771815524 24.4746913417 30.220195994
224 13 2 18.4354403823 25.4409138381 30.0682846013
225 13 2 18.1218517734 26.4164817021 30.2211882907
226 13 2 17.881465604 27.3222042731 30.6631511003
227 13 2 17.7526595457 28.0852571025 31.3520701014
228 13 2 17.7636410415 28.6458197071 32.2233329689
229 13 2 17.9298762721 28.9625280466 33.1957072214
230 13 2 18.2526804554 29.0162447452 34.1787443452
231 13 2 18.7190979677 28.8118034122 35.0810239342
232 13 2 19.3030832143 28.3775680715 35.8184864158
233 13 2 19.9678746156 27.7628478567 36.3220948564
234 13 2 20.669345327 27.0334026151 36.5441274929
235 14 1 29.7623634223 7.50041134681 10.8923634964
236 14 1 29.5907352869 10.9629969178 15.1934140667
237 14 2 29.7250462143 6.96301433007 11.0234873326
238 14 2 29.826570566 6.01158739817 11.420890919
239 14 2 30.131047765 5.20528776421 11.9958905248
240 14 2 30.5979293354 4.6179696827 12.7104037028
241 14 2 31.1718640771 4.3035278249 13.5136317162
242 14 2 31.7877431794 4.29098492364 14.3466897083
243 14 2 32.3766347154 4.58184642876 15.1479738994
244 14 2 32.8720666025 5.14996328938 15.8587766069
245 14 2 33.2160853556 5.94391537001 16.4286372937
246 14 2 33.3645383918 6.89169825846 16.8199419111
247 14 2 33.2910984208 7.90728627555 17.0113513188
248 14 2 32.9896631067 8.89847348588 16.9997462908
249 14 2 32.4749112798 9.77527802234 16.800511824
250 14 2 31.7809650005 10.4581436928 16.4461348375
251 14 2 30.9582794243 10.8851913146 15.9832430762
252 14 2 30.0690439498 11.0178588361 15.4683551166
253 15 1 9.79544390746 13.883586732 32.8604266461
254 15 1 14.8321594993 15.9835195018 33.72052517
255 15 2 9.4630538792 14.1955688496 32.5448864498
256 15 2 8.90589981927 14.9494690064 32.1036791082
257 15 2 8.48677058375 15.8700077719 31.8792039951
258 15 2 8.25618055092 16.8800959441 31.8788404832
259 15 2 8.24745925469 17.8944821323 32.0895407714
260 15 2 8.47371348661 18.8275231927 32.4790191577
261 15 2 8.92663264688 19.6009903726 32.998694794
262 15 2 9.5772462333 20.1511996522 33.588119701
263 15 2 10.3785644251 20.4348163723 34.1804884398
264 15 2 11.2698610796 20.4328050733 34.708727249
265 15 2 12.1822087577 20.1521645257 35.111607639
266 15 2 13.0447612756 19.6252898117 35.3393272049
267 15 2 13.7912111455 18.9070195994 35.358048983
268 15 2 14.3658333257 18.0696377452 35.1529855991
269 15 2 14.7285644088 17.196284813 34.7297470985
270 15 2 14.8586542949 16.3733800346 34.1138296052
271 16 1 5.75286781373 23.9410083871 3.83214606499
272 16 1 8.43526500932 20.740560295 7.44875612911
273 16 2 5.28551870773 24.169354365 4.02404321335
274 16 2 4.36277375377 24.3754775648 4.44772350275
275 16 2 3.45420895897 24.2827841793 4.93697595405
276 16 2 2.64750090528 23.9039268676 5.46531227183
277 16 2 2.02104220495 23.2776413659 6.00268177068
278 16 2 1.63679622342 22.4652158285 6.51821041488
279 16 2 1.53464928419 21.5449045764 6.98301490424
280 16 2 1.72877513706 20.6047954254 7.37283530971
281 16 2 2.20634305866 19.7347807165 7.67024630106
282 16 2 2.92868733867 19.01836387 7.8662454192
283 16 2 3.8348315559 18.5250482713 7.9610736262
284 16 2 4.84704641615 18.3040022235 7.96419334228
285 16 2 5.87793456961 18.3795773878 7.89342597151
286 16 2 6.8383966457 18.7490891949 7.77332752843
287 16 2 7.64575242256 19.3830615358 7.63295042296
288 16 2 8.2312769083 20.2279134308 7.50319541093
289 17 1 24.041078516 41.1114283747 28.2002805257
290 17 1 24.1309529877 35.867173374 26.4660074421
291 17 2 24.4410246781 41.2453416411 28.5601303451
292 17 2 25.114526832 41.3028033234 29.3453328763
293 17 2 25.6508387634 41.0975577359 30.207709692
294 17 2 26.0160349673 40.6384592035 31.0617063439
295 17 2 26.1917866802 39.9575000684 31.8225322129
296 17 2 26.1770324974 39.1068946739 32.4138889479
297 17 2 25.9880751176 38.1543201664 32.7749248566
298 17 2 25.657095395 37.1767479042 32.865781374
299 17 2 25.2292191412 36.2534277245 32.6712260649
300 17 2 24.7584040272 35.4586645319 32.202041019
301 17 2 24.3025214866 34.8550456054 31.4940400926
302 17 2 23.9180818887 34.4877359348 30.6048045711
303 17 2 23.6550837697 34.380361553 29.608434789
304 17 2 23.5524565994 34.5328560861 28.5887960821
305 17 2 23.6345124644 34.9214668031 27.6318746868
306 17 2 23.9087300862 35.500919614 26.8179403239
307 18 1 37.7508228903 34.1863427578 35.9810655146
308 18 1 37.595224016 29.5061769332 38.9119063335
309 18 2 37.3426752713 34.544898479 36.0916770148
310 18 2 36.4423451624 35.0268149623 36.2666404659
311 18 2 35.4344507499 35.2246690438 36.4024809124
312 18 2 34.4090269551 35.1184998528 36.5058450986
313 18 2 33.4577064553 34.7160574272 36.5863398933
314 18 2 32.6653676109 34.0520963183 36.6556566494
315 18 2 32.102398029 33.1852078065 36.7265055677
316 18 2 31.8182789217 32.1924794626 36.8114571969
317 18 2 31.8370750256 31.1624688218 36.921796661
318 18 2 32.1552411653 30.1871316008 37.0664950511
319 18 2 32.7419453869 29.3534401804 37.2513917335
320 18 2 33.541879208 28.7354563053 37.478662108
321 18 2 34.4802988382 28.3875805539 37.7466193255
322 18 2 35.4698378756 28.3395938709 38.0498680399
323 18 2 36.4184705212 28.5939431143 38.3797961794
324 18 2 37.2378994841 29.1255180303 38.7253599141
325 19 1 8.71126395959 32.3984136592 25.448876394
326 19 1 6.2796398713 28.6112850296 28.6524450443
327 19 2 8.68702629587 32.917707218 25.6415635069
328 19 2 8.41241842184 33.8406500511 26.0239468923
329 19 2 7.86472883565 34.625682391 26.420444501
330 19 2 7.09623217584 35.1985204145 26.8137884902
331 19 2 6.17932905555 35.5042212433 27.1869984612
332 19 2 5.19994694013 35.5121908405 27.524929177
333 19 2 4.24970808834 35.2189725751 27.8156510106
334 19 2 3.41757842837 34.6485622847 28.0515372984
335 19 2 2.78175855124 33.8502211192 28.2299594903
336 19 2 2.40255593595 32.8939855187 28.3535267347
337 19 2 2.31688808399 31.8642835786 28.4298480622
338 19 2 2.53491758768 30.8522396554 28.4708388423
339 19 2 3.03912583711 29.947368624 28.4916347293
340 19 2 3.78590979459 29.2294168369 28.5092120882
341 19 2 4.70955629497 28.7610934573 28.5408406443
342 19 2 5.72823162503 28.5823546857 28.6025093937
343 20 1 37.3637241487 5.86956792478 18.8845024388
344 20 1 38.0211124534 11.3528886352 19.0224359893
345 20 2 37.6935693517 5.60368577031 18.5268847518
346 20 2 38.2301175636 5.26772903316 17.7067023952
347 20 2 38.6339705546 5.17553411621 16.7570430509
348 20 2 38.8847166063 5.34536163154 15.7662176153
349 20 2 38.9758992885 5.77158954687 14.8262891639
350 20 2 38.9156059459 6.42522561874 14.024681648
351 20 2 38.7257305578 7.25654995805 13.4362114354
352 20 2 38.4399781607 8.19964686502 13.1162679985
353 20 2 38.1007927242 9.17841286907 13.0957653117
354 20 2 37.7554884967 10.1134933568 13.3783241252
355 20 2 37.4519374379 10.9295155328 13.9399419438
356 20 2 37.2342058178 11.5619584486 14.7311807896
357 20 2 37.138537694 11.9630339145 15.6816733418
358 20 2 37.1900513627 12.1060422658 16.7065367301
359 20 2 37.400449893 11.9878059652 17.714109381
360 20 2 37.7669544235 11.6289592274 18.6143057257
361 21 1 7.79746802316 33.5906036031 33.8437066591
362 21 1 5.04620810905 37.880218117 31.711157183
363 21 2 8.34751427589 33.6092880285 33.7767619046
364 21 2 9.31973818672 33.6852898733 33.4268270564
365 21 2 10.1448223257 33.8242014901 32.815770809
366 21 2 10.751158608 34.0320712076 32.0017704992
367 21 2 11.0870772312 34.3086620078 31.0615012723
368 21 2 11.1255562397 34.6474731298 30.0831473482
369 21 2 10.8666845039 35.0363325966 29.1583642652
370 21 2 10.3376536197 35.4585066584 28.3739247224
371 21 2 9.59027946742 35.894225029 27.8038094804
372 21 2 8.6962793325 36.3224828948 27.5024642128
373 21 2 7.74073506697 36.7229554471 27.499836928
374 21 2 6.81433810581 37.0778504345 27.798648289
375 21 2 6.0051231851 37.3735298785 28.3741436319
376 21 2 5.39044421116 37.6017531394 29.1763492872
377 21 2 5.0299236587 37.7604280282 30.1346275464
378 21 2 4.9600181416 37.8538015041 31.1641151004
379 22 1 31.883290451 19.2870622684 27.9762933232
380 22 1 34.9205856771 19.4735335705 32.5869393977
381 22 2 31.955181628 19.7154222946 27.6317342793
382 22 2 32.0532333751 20.643643232 27.1820213071
383 22 2 32.1123254373 21.6654675127 27.0212939643
384 22 2 32.1459684044 22.6908713795 27.1657414355
385 22 2 32.1699924832 23.6295048054 27.6037370366
386 22 2 32.2011046166 24.3989266572 28.296897956
387 22 2 32.2553656903 24.9321189846 29.1835837454
388 22 2 32.3467266257 25.1835955268 30.1845146817
389 22 2 32.4857567912 25.133547664 31.2099979023
390 22 2 32.6786806323 24.78964992 32.1681026692
391 22 2 32.9268103298 24.1863604498 32.9730396106
392 22 2 33.2264261985 23.3817802711 33.5529801924
393 22 2 33.5691157261 22.4523575115 33.8566036975
394 22 2 33.9425403515 21.4859193664 33.8577749717
395 22 2 34.3315600917 20.5736668844 33.5579265733
396 22 2 34.7196135104 19.8018622358 32.9859281992
397 23 1 13.9428428834 26.0856496557 5.2437177974
398 23 1 14.6174035568 22.1839409142 9.09594155209
399 23 2 13.4179083626 26.1709043359 5.08701114013
400 23 2 12.4350709933 26.096483575 4.76772714895
401 23 2 11.52078503 25.7236278114 4.45386449099
402 23 2 10.7489933654 25.0844671318 4.19068914423
403 23 2 10.1806509176 24.235404604 4.01884707368
404 23 2 9.85816875236 23.2519752887 3.97065946037
405 23 2 9.80154842794 22.2219614198 4.06717671201
406 23 2 10.0065589063 21.2373912888 4.31625977467
407 23 2 10.4451222011 20.3861511121 4.7118636285
408 23 2 11.0678726108 19.7439744369 5.23458827515
409 23 2 11.8086562708 19.3675392312 5.85344699577
410 23 2 12.5905609013 19.2893018382 6.52869070761
411 23 2 13.3329261557 19.5145386677 7.21543098669
412 23 2 13.958695596 20.0208652649 7.86773152763
413 23 2 14.401440181 20.7602765942 8.44279511514
414 23 2 14.6114130959 21.6635225697 8.90486447581
415 24 1 8.05306573214 1.97833423849 35.7490342847
416 24 1 5.11109114212 0.23865298101 40.0891132811
417 24 2 8.34062839009 2.44474480514 35.8335948495
418 24 2 8.671823015 3.39739185578 36.0707102824
419 24 2 8.71432837619 4.37660614544 36.4065416097
420 24 2 8.47024791191 5.29080046327 36.8285883931
421 24 2 7.96780659243 6.05431399505 37.316491886
422 24 2 7.25877828944 6.5952200775 37.8438906789
423 24 2 6.413766726 6.86188212133 38.380823471
424 24 2 5.51577013592 6.82766014843 38.8964599631
425 24 2 4.65261619658 6.49333895457 39.3619109567
426 24 2 3.90895677086 5.88705657745 39.7528615277
427 24 2 3.3585521161 5.06173958973 40.0517872659
428 24 2 3.05754783381 4.0902789834 40.2495515791
429 24 2 3.03935734811 3.05888635066 40.3462384682
430 24 2 3.31161636149 2.05923592775 40.3511448716
431 24 2 3.85548688087 1.18010873332 40.2819332732
432 24 2 4.62737425037 0.499300415884 40.163021815
433 25 1 32.0584377569 33.8145604014 38.0070729412
434 25 1 29.6486087973 38.6197166844 39.280331965
435 25 2 32.1870278499 33.7524550607 37.4713593024
436 25 2 32.2037938927 33.7015217854 36.4366734987
437 25 2 31.9344933374 33.7539846647 35.4375864813
438 25 2 31.4094863269 33.9227629954 34.5604710241
439 25 2 30.6824399643 34.2101742322 33.8805825195
440 25 2 29.8254366995 34.607722757 33.4551996499
441 25 2 28.9224042068 35.0968742328 33.3184035898
442 25 2 28.0614656016 35.6507449581 33.4779715968
443 25 2 27.3269072538 36.2365522448 33.9146681364
444 25 2 26.7914963108 36.8186024728 34.5839981488
445 25 2 26.5098481663 37.3615444676 35.4202626549
446 25 2 26.5134484131 37.8335916659 36.3425470427
447 25 2 26.8077830155 38.2094193753 37.262096218
448 25 2 27.3718382786 38.4724730529 38.0904043938
449 25 2 28.1600161897 38.6164772074 38.7472821565
450 25 2 29.1062905563 38.646007393 39.1681655161
451 26 1 28.5862103984 40.8650176952 26.4804864773
452 26 1 27.6395789769 37.9885295943 21.8601297575
453 26 2 28.3365171483 40.6670442207 26.9341839231
454 26 2 27.6787172347 40.298925166 27.6449846311
455 26 2 26.8273861377 39.9467498264 28.1189655426
456 26 2 25.8617541766 39.6236535482 28.3103126671
457 26 2 24.8714698894 39.3401211989 28.1989733278
458 26 2 23.9484288072 39.1030314998 27.7924839104
459 26 2 23.1783974231 38.9150300487 27.1252829414
460 26 2 22.6331958051 38.7742881807 26.2555721082
461 26 2 22.3641513887 38.6746696464 25.2600113311
462 26 2 22.3974206188 38.6062899142 24.2267314166
463 26 2 22.7316048595 38.5564171193 23.2473011696
464 26 2 23.3378778757 38.5106325392 22.4083811417
465 26 2 24.1626132679 38.4541448213 21.7838247537
466 26 2 25.1322723748 38.3731381755 21.4279467535
467 26 2 26.1601071258 38.2560316464 21.3705725722
468 26 2 27.1540668959 38.0945346866 21.6143198153
469 27 1 38.8866800886 36.9693207973 4.45532421699
470 27 1 35.5459403593 32.9286678482 6.19617827956
471 27 2 38.7529481236 37.4765608113 4.63478150395
472 27 2 38.2891642605 38.366944248 4.89085156302
473 27 2 37.5806619223 39.1082858956 5.03879415114
474 27 2 36.6862767883 39.6294022117 5.08310022738
475 27 2 35.6817872581 39.8791826043 5.03770694188
476 27 2 34.6530074526 39.8312480255 4.92472730186
477 27 2 33.6879654863 39.4863553514 4.77243463011
478 27 2 32.8688799402 38.8723283948 4.6126855272
479 27 2 32.2646658575 38.041521839 4.47801622744
480 27 2 31.924653322 37.0660492483 4.39867700815
481 27 2 31.8740911526 36.0312101096 4.39987495767
482 27 2 32.1118455407 35.0277150117 4.49947641669
483 27 2 32.6105033944 34.1434176181 4.70637850899
484 27 2 33.3188709682 33.4553070401 5.01969819243
485 27 2 34.1666400359 33.022490485 5.42885274587
486 27 2 35.070796298 32.8808057923 5.91452435591
487 28 1 11.0272554625 10.9453491726 32.1793577739
488 28 1 9.04971399098 7.02073787872 35.5267070209
489 28 2 10.7565971925 11.4287430087 32.2007139954
490 28 2 10.0609048786 12.1964379513 32.2110431119
491 28 2 9.1716511317 12.7279530194 32.1980232355
492 28 2 8.16590461201 12.976254609 32.1815833477
493 28 2 7.13135198469 12.9201232679 32.1819641551
494 28 2 6.15830551459 12.5660877915 32.2178732028
495 28 2 5.33147134473 11.9478301414 32.3047797318
496 28 2 4.72222875775 11.1231154237 32.4535046989
497 28 2 4.38212414511 10.1685267547 32.6692344755
498 28 2 4.3381726912 9.17248491394 32.9510481239
499 28 2 4.59039601158 8.22718902708 33.2920013379
500 28 2 5.11182018272 7.42021286152 33.6797593979
501 28 2 5.85093434308 6.82652271182 34.097721448
502 28 2 6.73638577039 6.50164442226 34.526533619
503 28 2 7.68348349167 6.47660235451 34.9458530824
504 28 2 8.60191763898 6.75509160005 35.3362022445
505 29 1 13.4917478849 14.4819542245 11.934382607
506 29 1 13.4314990548 13.1350090333 6.57713519888
507 29 2 13.3901901759 15.0162509919 12.0420607578
508 29 2 13.3669338242 16.0513238106 12.0812195787
509 29 2 13.5499102631 17.054201691 11.8962720432
510 29 2 13.9089271524 17.9375768751 11.491049674
511 29 2 14.3977465352 18.6250339561 10.889461456
512 29 2 14.9582993044 19.0580149388 10.1333145968
513 29 2 15.5259780464 19.201156644 9.27850391057
514 29 2 16.0355258343 19.0455139682 8.38991715591
515 29 2 16.4269842221 18.6093752055 7.5355206897
516 29 2 16.6511582972 17.9365951187 6.7801645154
517 29 2 16.6741006649 17.0925976948 6.17967137856
518 29 2 16.4802056628 16.1584129234 5.77574867283
519 29 2 16.0736317752 15.2232911298 5.59218692239
520 29 2 15.4779225983 14.3765680464 5.63269133937
521 29 2 14.7338609046 13.6995220994 5.88054410358
522 29 2 13.8957514018 13.2579660975 6.3001281472
523 30 1 34.3503060403 26.371649617 35.9755790128
524 30 1 31.0437690427 22.2090974848 34.4729267274
525 30 2 34.6514796872 26.2778273935 36.4315103814
526 30 2 35.0068992517 26.0398415407 37.3751679878
527 30 2 35.0689640533 25.7241513372 38.3600221227
528 30 2 34.8366280696 25.341000196 39.2941876353
529 30 2 34.3356791227 24.9067804144 40.0903995072
530 30 2 33.6163883885 24.4425390596 40.6739668258
531 30 2 32.7489283132 23.9720595851 40.9895806612
532 30 2 31.8169765825 23.5196940323 41.0063553271
533 30 2 30.9100891239 23.1081434071 40.720643529
534 30 2 30.1155373238 22.7563885438 40.156368805
535 30 2 29.5103534732 22.4779600527 39.3628449594
536 30 2 29.154309481 22.2797050414 38.4102812411
537 30 2 29.0844688238 22.1611630192 37.3833829586
538 30 2 29.3118083089 22.1146078692 36.3736308169
539 30 2 29.8202175683 22.1257520637 35.4709426963
540 30 2 30.5679674751 22.1750489341 34.7554778777
541 31 1 29.9845515758 34.9189837713 33.8158013087
542 31 1 28.8119881505 31.0669732225 37.598009765
543 31 2 29.9304192886 35.4422726687 33.9907870605
544 31 2 29.6182630667 36.3457522521 34.3904533546
545 31 2 29.063334765 37.0792732766 34.8673721086
546 31 2 28.3227939517 37.574765773 35.396084224
547 31 2 27.4707182789 37.7858554363 35.9464097759
548 31 2 26.5913515033 37.6920905196 36.4861988324
549 31 2 25.7714248926 37.3008059561 36.9842618351
550 31 2 25.0922519023 36.6464547998 37.4132124436
551 31 2 24.6223166716 35.7874679212 37.7519637279
552 31 2 24.4110318773 34.8009281902 37.9876501851
553 31 2 24.4842349 33.7755445782 38.1168003957
554 31 2 24.8418328164 32.8035665725 38.1456534346
555 31 2 25.4578108686 31.9723758822 38.0895901956
556 31 2 26.2826036399 31.3565218288 37.9717314645
557 31 2 27.2476128102 31.010926375 37.8208305208
558 31 2 28.2714597092 30.9658781343 37.6686523536
559 32 1 12.6971549361 14.2868860076 17.2793551088
560 32 1 10.7871766074 10.4244222031 20.7364271654
561 32 2 12.5446892829 14.8057357884 17.4015464243
562 32 2 12.0444096782 15.6812042527 17.6397171535
563 32 2 11.3059900437 16.3643567356 17.8876871914
564 32 2 10.3976047795 16.7928271008 18.1420478982
565 32 2 9.40292019863 16.9274628064 18.3988081416
566 32 2 8.41346856615 16.7558935546 18.6537580778
567 32 2 7.52030517784 16.2936588106 18.9028528679
568 32 2 6.80570891337 15.5827914228 19.1425813538
569 32 2 6.33568273637 14.6879864403 19.370286091
570 32 2 6.15393770067 13.6907043323 19.5844055676
571 32 2 6.27790880457 12.6817460842 19.7846165319
572 32 2 6.69716583735 11.7529769304 19.9718634558
573 32 2 7.37436406511 10.9889530835 20.1482724489
574 32 2 8.24864810345 10.4592146619 20.3169574694
575 32 2 9.24119872309 10.2119472935 20.4817364946
576 32 2 10.262417012 10.2695901248 20.6467835232
577 33 1 38.3545804612 26.0259085207 21.2294809081
578 33 1 38.571079034 28.7615816238 26.0239790155
579 33 2 38.4146869135 26.3414392471 20.7775858282
580 33 2 38.3598930347 27.0616989105 20.0348384558
581 33 2 38.1041909352 27.903996284 19.4883939645
582 33 2 37.6841904054 28.8041567772 19.1938423515
583 33 2 37.1514765987 29.6927317309 19.1838142515
584 33 2 36.567908182 30.5013284771 19.4650067414
585 33 2 35.9999790845 31.1688441475 20.0175729195
586 33 2 35.5127577529 31.6470350366 20.7969308981
587 33 2 35.1639563368 31.904913887 21.7378273227
588 33 2 34.9986703806 31.9315742947 22.7602850414
589 33 2 35.045268485 31.7371847987 23.7768928083
590 33 2 35.3128065847 31.3520620458 24.7007725849
591 33 2 35.7902025245 30.8239075097 25.4534982413
592 33 2 36.4472461681 30.2134596286 25.9722438881
593 33 2 37.2373529708 29.5889576592 26.2155102884
594 33 2 38.1018100371 29.0199218507 26.1669074024