LAMMPS input file for bananas

648 atoms

2 atom types

0 33.7373066121 xlo xhi
0 33.7373066121 ylo yhi
0 33.7373066121 zlo zhi

Masses

 1 1
 2 1

Atoms

1 1 1 22.5959744277 24.293813023 5.64587306287
2 1 1 26.7003689657 21.232450625 3.61642962391
3 1 2 22.7543895553 24.7158187088 5.96866804441
4 1 2 23.1774086639 25.3384768401 6.68003992776
5 1 2 23.7443189051 25.7016121955 7.46708742516
6 1 2 24.4191137904 25.778183921 8.24906370658
7 1 2 25.1559538858 25.5672694724 8.94568414858
8 1 2 25.9033447618 25.0941486994 9.48444372726
9 1 2 26.6088303576 24.4079997603 9.80722535411
10 1 2 27.2237739913 23.5774168704 9.87559685014
11 1 2 27.7077912601 22.6841584092 9.67431377555
12 1 2 28.0324308017 21.8156952049 9.21270885586
13 1 2 28.183767441 21.057238168 8.52384136798
14 1 2 28.1636713742 20.4839719011 7.66148401375
15 1 2 27.9896377134 20.1542021376 6.69522190691
16 1 2 27.6931919268 20.1040415745 5.70411036697
17 1 2 27.3170165088 20.3441184467 4.76946956893
18 1 2 26.9110607628 20.8586078371 3.96747276682
19 2 1 26.4525184069 27.506696089 2.59274450569
20 2 1 24.0511407556 22.6478721154 3.57348396976
21 2 2 26.1197770484 27.9476196654 2.64018225194
22 2 2 25.3569456369 28.6462527359 2.58823668857
23 2 2 24.4633494954 29.1226968325 2.37101507422
24 2 2 23.5097335261 29.328664199 2.02331937661
25 2 2 22.5723130269 29.2405191783 1.59184338162
26 2 2 21.7258271899 28.8614324414 1.13091687482
27 2 2 21.0367271359 28.2210920016 0.697553854006
28 2 2 20.5571193508 27.3729973562 0.346256094224
29 2 2 20.3200165364 26.389583374 0.124045684612
30 2 2 20.3363287292 25.3556183536 0.0661792873799
31 2 2 20.593868925 24.3604779739 0.19293473477
32 2 2 21.0584638412 23.4899993144 0.507762843674
33 2 2 21.6770685771 22.8186573931 0.996972897331
34 2 2 22.3826012926 22.4027772799 1.6309804603
35 2 2 23.1000572583 22.2754004521 2.36700379691
36 2 2 23.7533450225 22.4432732909 3.15296313315
37 3 1 14.393107087 19.3414052954 27.9666010705
38 3 1 11.54124395 14.7285087236 28.9282126308
39 3 2 14.139987011 19.8106911004 28.1185280662
40 3 2 13.4868573847 20.5980363977 28.2804148944
41 3 2 12.6454923913 21.202007957 28.2850597228
42 3 2 11.6841402835 21.5622794744 28.1482941213
43 3 2 10.6819853172 21.640736234 27.8988382507
44 3 2 9.72193064865 21.4249490029 27.5756832175
45 3 2 8.88304228096 20.9293068706 27.2245373015
46 3 2 8.23334273948 20.1937057821 26.8936599595
47 3 2 7.82361128518 19.2799122961 26.6294633067
48 3 2 7.68275573313 18.2659339866 26.4722819708
49 3 2 7.81517770335 17.2389095873 26.452696867
50 3 2 8.20037144332 16.2871668939 26.5887479573
51 3 2 8.79479278677 15.4921722902 26.8842900316
52 3 2 9.53582790581 14.9211056468 27.3286413703
53 3 2 10.3475001321 14.6207373356 27.8975573094
54 3 2 11.1473947094 14.6131654318 28.5554399757
55 4 1 22.2467598129 14.1228562553 13.8312210238
56 4 1 20.6926513105 15.1898865339 8.65600817078
57 4 2 21.8339982589 14.0973027273 14.2004847079
58 4 2 21.0008785451 14.2555561107 14.7950985996
59 4 2 20.1427638319 14.6606171936 15.2101442949
60 4 2 19.3242343333 15.2668552256 15.3977160934
61 4 2 18.6062623422 16.0103035562 15.3306409809
62 4 2 18.0406550242 16.8144897573 15.004955263
63 4 2 17.6653325495 17.5974055602 14.4402658291
64 4 2 17.5008719295 18.2789813469 13.6779631186
65 4 2 17.5486315633 18.7883839476 12.7774486662
66 4 2 17.7906274288 19.0704725975 11.8107210594
67 4 2 18.1911722031 19.0908246402 10.8558137606
68 4 2 18.7001279172 18.8388729164 9.98968289231
69 4 2 19.2574756883 18.3288688883 9.28119321391
70 4 2 19.7987860295 17.5985837163 8.78484157123
71 4 2 20.2610911554 16.7058656769 8.53578988257
72 4 2 20.5886240646 15.7233676886 8.54666037091
73 5 1 17.1178526514 25.2886396927 21.3014762708
74 5 1 13.3953704815 21.9955089008 23.675302509
75 5 2 17.1481328085 25.8003915488 21.5126015926
76 5 2 16.9713063103 26.7533862208 21.877610929
77 5 2 16.5043372744 27.6231360876 22.1909372124
78 5 2 15.7874417321 28.3269886192 22.4426327948
79 5 2 14.8836148022 28.7974116905 22.6283672443
80 5 2 13.8728891176 28.9881486712 22.7498220339
81 5 2 12.8450404002 28.8784344005 22.8145372868
82 5 2 11.8914050186 28.4748877893 22.8352245462
83 5 2 11.0965553048 27.810908552 22.8286082048
84 5 2 10.5305913659 26.943633051 22.8139011914
85 5 2 10.2427519397 25.9487267094 22.8110538442
86 5 2 10.2569266216 24.9134876266 22.838935574
87 5 2 10.5694784918 23.9288899545 22.9136150469
88 5 2 11.1495755954 23.0812922279 23.0468956357
89 5 2 11.9420010637 22.4445663756 23.2452396231
90 5 2 12.8721857534 22.0733648011 23.5091792093
91 6 1 13.707042868 14.7085902772 26.1943745681
92 6 1 12.8836509797 12.4543827972 31.1519152247
93 6 2 14.0741957589 14.4445041709 25.8736908691
94 6 2 14.8961091058 13.9638173299 25.4661410169
95 6 2 15.8250423272 13.5227242524 25.342778793
96 6 2 16.7724895047 13.1431898156 25.5188348299
97 6 2 17.6482573 12.8415682485 25.9822498384
98 6 2 18.3686854588 12.6271125564 26.6947737294
99 6 2 18.8642718698 12.5011311727 27.5954518469
100 6 2 19.0860072055 12.4568687039 28.6061805671
101 6 2 19.0098417862 12.480121638 29.6388259084
102 6 2 18.6388775437 12.5505328968 30.6032563396
103 6 2 18.0030853013 12.6434472441 31.4155576505
104 6 2 17.156573139 12.7321584415 32.0056811575
105 6 2 16.1726548124 12.7903433388 32.3238281604
106 6 2 15.1371677073 12.794461049 32.3449887528
107 6 2 14.1406493498 12.7258985383 32.0712213032
108 6 2 13.270085532 12.5726670768 31.5314648494
109 7 1 22.7881672703 23.0210235598 21.5176528899
110 7 1 20.1915184825 18.6181387423 19.4661521505
111 7 2 22.6051007912 23.1932720428 22.0118167048
112 7 2 22.0524734953 23.5040962333 22.8307731539
113 7 2 21.2683473523 23.7618226136 23.45641009
114 7 2 20.3206637118 23.9264103272 23.8404737216
115 7 2 19.2922710678 23.966307469 23.9567280073
116 7 2 18.2733739867 23.8613268242 23.8033458915
117 7 2 17.3533115794 23.6044857952 23.4030758282
118 7 2 16.612414854 23.2026428171 22.8011684148
119 7 2 16.1146850949 22.6758722587 22.0612521109
120 7 2 15.9019605849 22.055634781 21.2595339402
121 7 2 15.9901033322 21.3819099141 20.4778537428
122 7 2 16.3675533573 20.6995521967 19.7962250352
123 7 2 16.9963823061 20.0542029928 19.2855423261
124 7 2 17.8157503586 19.488130594 19.0011195689
125 7 2 18.7474513624 19.0363777547 18.9776486733
126 7 2 19.7030407863 18.7235677853 19.2260375761
127 8 1 2.56188484001 21.9320869781 15.5236326681
128 8 1 3.49133815067 27.2691146766 14.5292047846
129 8 2 3.00130963857 21.646194386 15.7040544624
130 8 2 3.92863966407 21.2106388753 15.8558724189
131 8 2 4.92648830951 20.9483744714 15.7652427641
132 8 2 5.91228097941 20.8959887097 15.451926925
133 8 2 6.80454189778 21.0709401265 14.9559826474
134 8 2 7.53032006655 21.4699670325 14.3341130075
135 8 2 8.03183824884 22.0693847942 13.6544983145
136 8 2 8.27175896798 22.8272445253 12.9905819436
137 8 2 8.23658756254 23.6871564404 12.4143764754
138 8 2 7.93790213218 24.5834293971 11.9899002431
139 8 2 7.41129827324 25.4470581935 11.7673425003
140 8 2 6.71314478421 26.212012919 11.7784890148
141 8 2 5.91544603619 26.821257128 12.0338250136
142 8 2 5.09927926814 27.2319463211 12.5215795261
143 8 2 4.34740495244 27.419332927 13.2087982281
144 8 2 3.73672374523 27.3790218745 14.0443470019
145 9 1 19.4319596878 14.8735491163 2.8137411128
146 9 1 23.2131924284 14.654260589 6.81259425211
147 9 2 19.4138059986 14.4295080233 2.48226154631
148 9 2 19.6119928967 13.6352450066 1.84778027413
149 9 2 20.0974937015 12.9384558489 1.25492944182
150 9 2 20.8290686106 12.3884828572 0.770134503921
151 9 2 21.7430498541 12.0212870513 0.449972361057
152 9 2 22.7591445754 11.8561705639 0.336014763306
153 9 2 23.7877529743 11.8940173832 0.451039330226
154 9 2 24.7381347149 12.1172127834 0.796953526992
155 9 2 25.5266792847 12.4912487866 1.35462081202
156 9 2 26.0845265199 12.9678693278 2.08560480153
157 9 2 26.363842737 13.489468465 2.93567248242
158 9 2 26.342180445 13.9943407653 3.83973717955
159 9 2 26.0245242808 14.4223053324 4.72779075997
160 9 2 25.4428366931 14.7201908826 5.53128439424
161 9 2 24.6531447847 14.8466819429 6.18937631226
162 9 2 23.7304338261 14.7760844726 6.65447711349
163 10 1 17.4071311263 22.2862112296 28.563248408
164 10 1 15.1869458639 21.0399332034 33.4473249235
165 10 2 17.2381532786 22.7663219329 28.3434281379
166 10 2 16.7081120047 23.5781959239 27.9792645183
167 10 2 15.9419628551 24.2241311266 27.7175748822
168 10 2 15.0084274468 24.6563683787 27.5976546152
169 10 2 13.9914835067 24.8466256212 27.6458777974
170 10 2 12.9827108773 24.788675614 27.8732933861
171 10 2 12.0729446424 24.4989135057 28.2746181793
172 10 2 11.3439961317 24.014862529 28.8287183433
173 10 2 10.861196379 23.3917540147 29.500535617
174 10 2 10.6674416463 22.6974934347 30.2442826316
175 10 2 10.779283724 22.006471284 31.0076161157
176 10 2 11.1854213483 21.3927828969 31.7364076255
177 10 2 11.847730234 20.9234751653 32.3796769813
178 10 2 12.7047378418 20.6524356744 32.8942387613
179 10 2 13.677226179 20.6154812184 33.248638357
180 10 2 14.6754519757 20.8270933458 33.4260188448
181 11 1 27.8993465723 23.7468567728 29.110588168
182 11 1 25.5699284994 28.2778197197 27.0175470451
183 11 2 27.8956385689 23.7144047256 29.6640444599
184 11 2 27.9769104495 23.8714653291 30.6845468456
185 11 2 28.1514708812 24.3040375086 31.6092674717
186 11 2 28.3862780142 24.9799405543 32.3580791664
187 11 2 28.6427989252 25.8448158167 32.8668876508
188 11 2 28.8805216288 26.827081124 33.0934732934
189 11 2 29.0606474673 27.8444550067 33.0213391395
190 11 2 29.1496273424 28.8114560895 32.6612144961
191 11 2 29.1222194854 29.6471941323 32.0500770285
192 11 2 28.9637900714 30.2827426212 31.2477825002
193 11 2 28.6716469924 30.6674209477 30.3316093301
194 11 2 28.2552852238 30.7734135984 29.3892151946
195 11 2 27.7355214231 30.5983053488 28.5106476312
196 11 2 27.1425966341 30.1653013941 27.780136823
197 11 2 26.5134200232 29.5211123547 27.268418595
198 11 2 25.8882048615 28.7316969239 27.0262873285
199 12 1 16.6923788572 4.68307544937 30.1494547664
200 12 1 13.8811082892 1.44008745094 33.6014717946
201 12 2 16.6660236383 5.2253587443 30.2617712038
202 12 2 16.385130333 6.19818737409 30.4794904707
203 12 2 15.8271802733 7.04084231761 30.7060354953
204 12 2 15.0436299946 7.67652906949 30.9398080028
205 12 2 14.1064979453 8.04731685599 31.1785509829
206 12 2 13.1018004992 8.11941862792 31.4195544009
207 12 2 12.121712153 7.88627051846 31.6599021985
208 12 2 11.2561644526 7.36913009469 31.896738073
209 12 2 10.5846493491 6.61513887604 32.1275258091
210 12 2 10.1689740531 5.69302570801 32.3502804379
211 12 2 10.0476277304 4.68684259915 32.5637491535
212 12 2 10.2322734791 3.6883039567 32.7675254968
213 12 2 10.7066853179 2.78842744721 32.9620864023
214 12 2 11.428227073 2.06923836025 33.1487487285
215 12 2 12.3317383729 1.59629356563 33.3295492351
216 12 2 13.3354735701 1.41270645419 33.5070589465
217 13 1 17.2032690512 26.4141740095 4.94305594111
218 13 1 13.9774049385 22.8683778054 7.65557597467
219 13 2 17.170063439 26.9406398538 5.11367790241
220 13 2 16.8765819314 27.8888840055 5.40931265097
221 13 2 16.3054687756 28.7135190487 5.6671984394
222 13 2 15.5071794321 29.3372114885 5.882698174
223 13 2 14.5528749131 29.7009423706 6.0550379593
224 13 2 13.5279359446 29.7693864542 6.18737763328
225 13 2 12.5241810982 29.5341318657 6.28652276984
226 13 2 11.6314981582 29.0144467835 6.36230439737
227 13 2 10.929651466 28.2555232753 6.42668296792
228 13 2 10.4810119475 27.3243583508 6.49265824401
229 13 2 10.3248724307 26.3036476444 6.57308445941
230 13 2 10.4738663739 25.2842482741 6.67949874382
231 13 2 10.9128164124 24.356897839 6.82106959265
232 13 2 11.6001176716 23.6039443086 7.0037612215
233 13 2 12.4715297657 23.0918405703 7.22978996878
234 13 2 13.4460318686 22.8650877042 7.4974222917
235 14 1 16.8772122394 23.2895455476 23.5243322673
236 14 1 15.0566087524 21.8261926401 18.5362829353
237 14 2 17.2130633335 22.9227302872 23.7693452444
238 14 2 17.6700794736 22.0849636457 24.1718145888
239 14 2 17.8783682047 21.1116003545 24.4579578729
240 14 2 17.8292513811 20.085123978 24.586923206
241 14 2 17.5375116085 19.092858974 24.5321843902
242 14 2 17.0400449112 18.2190116683 24.2839586009
243 14 2 16.392497912 17.5369954254 23.850098025
244 14 2 15.6641960243 17.1027395237 23.2553741872
245 14 2 14.9318249159 16.9495915851 22.5392201956
246 14 2 14.2724411363 17.0852781681 21.7521366844
247 14 2 13.7564489403 17.4912005445 20.9510890273
248 14 2 13.4411834229 18.1241298467 20.1943153339
249 14 2 13.3656848187 18.920147082 19.5360184457
250 14 2 13.5471402518 19.8004689107 19.0214257186
251 14 2 13.9793172477 20.6786282076 18.6826668595
252 14 2 14.6331317804 21.4683549472 18.5358455236
253 15 1 18.4023285445 25.8428570771 18.9736361093
254 15 1 15.7065932413 23.4099937495 23.1149912174
255 15 2 18.3025569245 26.38495641 18.9140148992
256 15 2 17.8910686517 27.3298865917 18.8116302115
257 15 2 17.2201063186 28.1160104256 18.7444205663
258 15 2 16.3497775703 28.6774068159 18.7366595232
259 15 2 15.3583609336 28.9686370325 18.807202309
260 15 2 14.3351712665 28.9688861398 18.9677672933
261 15 2 13.3724193207 28.683860135 19.2218679396
262 15 2 12.5568073638 28.1452658864 19.5644925772
263 15 2 11.9616268626 27.4079212688 19.9825611803
264 15 2 11.6400784676 26.5447588907 20.4561175232
265 15 2 11.6204231393 25.6401787868 20.9601480528
266 15 2 11.9034063545 24.7823559336 21.466861703
267 15 2 12.4621901622 24.0552037045 21.9482228598
268 15 2 13.2447992778 23.5307257418 22.3785066148
269 15 2 14.1788582749 23.2624533178 22.7366434149
270 15 2 15.1781881084 23.2805663263 23.008139407
271 16 1 13.8638604219 12.2374000627 27.8053283113
272 16 1 10.9239578601 14.3888486696 31.9362939062
273 16 2 14.2193443393 11.8381470959 27.952328327
274 16 2 14.9506870548 11.2489746712 28.389034129
275 16 2 15.7020297111 10.9021723655 29.0118588592
276 16 2 16.3948909052 10.8199946646 29.7772923719
277 16 2 16.9561194182 11.0005773359 30.6288267083
278 16 2 17.3245614479 11.4181073402 31.50210641
279 16 2 17.4566343581 12.0251755135 32.3307940776
280 16 2 17.3302989372 12.7570975874 33.0526165698
281 16 2 16.9470681214 13.5378097162 33.6150407735
282 16 2 16.331869101 14.2868011753 33.9800616368
283 16 2 15.5307713775 14.9264523616 34.1276660685
284 16 2 14.6067878448 15.3891092884 34.057656995
285 16 2 13.6341315956 15.6232497822 33.7896713213
286 16 2 12.6914519073 15.5981793754 33.3613901625
287 16 2 11.8546658991 15.3068288971 32.8251044678
288 16 2 11.1900392072 14.7663987791 32.2429490597
289 17 1 32.1776931154 15.7796916712 27.5320387384
290 17 1 28.3613616939 12.0385191442 28.8646592887
291 17 2 32.0652162317 16.0799485478 27.0797384948
292 17 2 31.8156021369 16.430297381 26.1375884167
293 17 2 31.519009748 16.4819969756 25.1465998305
294 17 2 31.1836807396 16.233006319 24.1988359463
295 17 2 30.8213873632 15.7086902535 23.382420339
296 17 2 30.4463594878 14.9595076448 22.7735050882
297 17 2 30.0739876447 14.0564124023 22.429330039
298 17 2 29.7194202859 13.0843865166 22.3830057822
299 17 2 29.3961831069 12.134694534 22.6404958508
300 17 2 29.114946272 11.2965654186 23.1800731851
301 17 2 28.8825519021 10.649059944 23.9543004052
302 17 2 28.7013904624 10.2538648459 24.8943534028
303 17 2 28.5691828877 10.1496704991 25.916294187
304 17 2 28.4791883035 10.3486445549 26.9287212565
305 17 2 28.4208184109 10.8353229435 27.8411002198
306 17 2 28.3806025369 11.5680193174 28.5720153847
307 18 1 16.759470993 25.4770659688 7.12676619489
308 18 1 11.8316389379 27.7922931846 6.29440263068
309 18 2 17.0535435363 25.3777067183 6.66738636265
310 18 2 17.4036149299 25.0909181949 5.73577451574
311 18 2 17.4640490566 24.7090555493 4.77492754184
312 18 2 17.2253479555 24.2823107892 3.86190565535
313 18 2 16.7052777907 23.8649666197 3.06941014186
314 18 2 15.9472495873 23.5104489462 2.4591571344
315 18 2 15.0163626143 23.2664574698 2.07625261103
316 18 2 13.9934710323 23.1706181866 1.94508129424
317 18 2 12.9678145913 23.247054036 2.06708415063
318 18 2 12.0288850391 23.5041862602 2.4206270567
319 18 2 11.2582695624 23.9339668657 2.96297260091
320 18 2 10.7222146737 24.5126121426 3.63417530567
321 18 2 10.4655882962 25.2027703871 4.36254524669
322 18 2 10.5077903601 25.9569262529 5.07118209803
323 18 2 10.8409846319 26.721731449 5.68498406958
324 18 2 11.4308129335 27.4428670713 6.13749292034
325 19 1 7.17646922308 31.2754330904 18.3675195067
326 19 1 9.23448129202 29.0969393927 13.7463306488
327 19 2 6.94440820918 30.9120751121 18.7160871718
328 19 2 6.39613349586 30.1624349826 19.1744895998
329 19 2 5.75312751341 29.3686129869 19.3450422804
330 19 2 5.08577243055 28.5880593582 19.2106120115
331 19 2 4.46666966957 27.8770150088 18.781862696
332 19 2 3.96402278442 27.2853855568 18.0962833997
333 19 2 3.63542117442 26.8521927711 17.2147714807
334 19 2 3.52259120533 26.6020180047 16.216082212
335 19 2 3.64759313719 26.5427617732 15.1896507787
336 19 2 4.01081048287 26.6649236762 14.2274408742
337 19 2 4.5909150535 26.9424682947 13.4155628397
338 19 2 5.34681087665 27.3351981402 12.8264252971
339 19 2 6.22137981249 27.7924173804 12.5121355996
340 19 2 7.14668748058 28.2575524171 12.4997506039
341 19 2 8.05017501292 28.6733081813 12.7888106229
342 19 2 8.86127229727 28.9868901862 13.3513813229
343 20 1 25.9242737578 15.7612033207 18.3538049893
344 20 1 24.8726519777 10.8682642757 20.653777611
345 20 2 26.0456462048 16.1678558949 18.7105726513
346 20 2 26.0762600643 16.8550337153 19.4848773108
347 20 2 25.8591859709 17.3853366096 20.3476379667
348 20 2 25.4246947977 17.7011751905 21.2331670077
349 20 2 24.8228734937 17.7645070225 22.07370164
350 20 2 24.1190600023 17.5603039289 22.8055800022
351 20 2 23.3878881553 17.0979217076 23.3750435064
352 20 2 22.7064853113 16.4102474135 23.7431365659
353 20 2 22.1474427252 15.5507019295 23.8892571292
354 20 2 21.7721993536 14.5883710191 23.813034416
355 20 2 21.6254421146 13.6017086326 23.5343627113
356 20 2 21.7310329821 12.6713863677 23.0915881376
357 20 2 22.0898341299 11.872940806 22.5380136689
358 20 2 22.6796293511 11.2698888721 21.9370409297
359 20 2 23.4571489125 10.9079387009 21.3563915723
360 20 2 24.3620132944 10.8108236546 20.8619349117
361 21 1 16.587905494 23.9761370377 21.4152196597
362 21 1 13.691589522 27.1085593857 17.9315550732
363 21 2 16.3438675296 23.5007197679 21.5628836131
364 21 2 15.7043841551 22.7522960992 21.8847862333
365 21 2 14.8714535992 22.2404319191 22.2267219308
366 21 2 13.9127742949 22.0064447227 22.5411774199
367 21 2 12.9075058114 22.0663254235 22.7831440473
368 21 2 11.939054002 22.4092808909 22.9142200224
369 21 2 11.0874691326 22.9987176702 22.9061104776
370 21 2 10.422149849 23.7755772247 22.7432063509
371 21 2 9.99551796568 24.663718717 22.4240070451
372 21 2 9.83824057709 25.576858724 21.9612571973
373 21 2 9.95643496227 26.4264353794 21.380785092
374 21 2 10.3311110367 27.1296801805 20.7191485905
375 21 2 10.9199021684 27.6171617699 20.0203031324
376 21 2 11.6609266059 27.8391141277 19.3315954985
377 21 2 12.4784275755 27.7699724028 18.6994484763
378 21 2 13.2896779921 27.4107029742 18.1651297416
379 22 1 0.570428106746 6.13191439554 29.4615021534
380 22 1 3.53736230328 2.97595713374 26.0594630352
381 22 2 0.570424016349 6.67301757879 29.34072096
382 22 2 0.803759737604 7.65483581301 29.1077281119
383 22 2 1.32015779695 8.51998508906 28.8678363748
384 22 2 2.0719562961 9.18929386816 28.6238629214
385 22 2 2.99003820064 9.60144013013 28.378996945
386 22 2 3.99013088378 9.7185404551 28.1365089863
387 22 2 4.98048699855 9.52960283749 27.899452846
388 22 2 5.87024661943 9.05152853195 27.6703872516
389 22 2 6.57771850163 8.32757161988 27.4511426474
390 22 2 7.03782567793 7.42339669648 27.2426543617
391 22 2 7.20803677811 6.42109399309 27.0448773579
392 22 2 7.07224247174 5.4116974154 26.8567903397
393 22 2 6.64222372317 4.48688742713 26.6764888351
394 22 2 5.95657803744 3.7306350043 26.5013587758
395 22 2 5.0772015623 3.21154825649 26.3283147516
396 22 2 4.08364767871 2.97661926804 26.1540812247
397 23 1 6.79218700378 18.6285241234 12.5044604423
398 23 1 3.83155209539 15.3632885786 15.8074155892
399 23 2 6.7703233276 19.1689120609 12.6264588373
400 23 2 6.49712942859 20.1415523015 12.8545691767
401 23 2 5.94488132308 20.9880640969 13.0807064829
402 23 2 5.16394205194 21.6309305361 13.3033157083
403 23 2 4.22551828786 22.0111955859 13.521163366
404 23 2 3.21517033535 22.0938375296 13.7334499532
405 23 2 2.22501389556 21.8709609559 13.9398828205
406 23 2 1.34532435168 21.3625163716 14.140702845
407 23 2 0.656308786747 20.6144818501 14.3366624759
408 23 2 0.22079565786 19.6946724446 14.5289571541
409 23 2 0.0785084131305 18.6865593115 14.7191163556
410 23 2 0.242444971714 17.6816618864 14.9088641906
411 23 2 0.697693052597 16.7712065153 15.0999622625
412 23 2 1.40278932677 16.0378117983 15.2940491098
413 23 2 2.29349851539 15.5479584709 15.4924908648
414 23 2 3.28866799504 15.3459301409 15.6962567395
415 24 1 15.8484686191 30.4726595652 29.4911047552
416 24 1 12.902198258 25.8359547512 29.0947534535
417 24 2 15.709501711 30.8045921492 29.9128744907
418 24 2 15.2321122558 31.3957911345 30.6166367651
419 24 2 14.507787325 31.8914545421 31.1665180725
420 24 2 13.5988498102 32.2337645051 31.5261772924
421 24 2 12.5844487741 32.3788802716 31.6766107437
422 24 2 11.5533455563 32.3009339887 31.6178842396
423 24 2 10.5958237858 31.9943883799 31.3691270891
424 24 2 9.79546064723 31.4745414302 30.9667885919
425 24 2 9.22150939332 30.7761320791 30.4613159343
426 24 2 8.92258738585 29.950174005 29.9125562743
427 24 2 8.92224495641 29.0593060778 29.3843020835
428 24 2 9.21681895516 28.1720832555 28.9384769004
429 24 2 9.77576662178 27.3567282697 28.6294914248
430 24 2 10.5444493487 26.6749135915 28.499284355
431 24 2 11.4491126157 26.1761404086 28.5734999637
432 24 2 12.4036082083 25.8932269313 28.8591507978
433 25 1 12.1576552161 20.8865661947 6.15161332291
434 25 1 16.7868004911 18.9516795111 3.87919996455
435 25 2 12.2054599539 21.3802774306 6.3992918934
436 25 2 12.4792075048 22.201731303 6.96759998324
437 25 2 12.9798990884 22.8342839589 7.61712546129
438 25 2 13.6737243907 23.2293928654 8.27681756602
439 25 2 14.5092702832 23.3601568594 8.87469891756
440 25 2 15.4222067773 23.223768004 9.34442576243
441 25 2 16.3411502619 22.8417675131 9.63133475178
442 25 2 17.1941696297 22.2580824172 9.69742513088
443 25 2 17.9153423045 21.5350219158 9.52482224737
444 25 2 18.4507626325 20.7475983209 9.11740670325
445 25 2 18.7634550128 19.9766901993 8.50046066466
446 25 2 18.8367439695 19.3016708457 7.71836356574
447 25 2 18.6757740079 18.7931739508 6.83054722748
448 25 2 18.3070407271 18.5066558252 5.90607905472
449 25 2 17.7759759287 18.4773409364 5.01736701571
450 25 2 17.1428068189 18.7170114402 4.23356015229
451 26 1 22.0643976019 20.0910101396 1.37116744185
452 26 1 27.4325106418 19.3572058818 2.36188870921
453 26 2 21.7280683144 19.9700794817 1.79500601724
454 26 2 21.2221147147 19.5432852979 2.5915962197
455 26 2 20.923759897 18.8959345755 3.34300803492
456 26 2 20.8702661024 18.0934652913 3.995602651
457 26 2 21.0765781687 17.2154534155 4.50474776627
458 26 2 21.5339614104 16.3483601076 4.83888551755
459 26 2 22.2107977259 15.5776513747 4.98240876302
460 26 2 23.0554673706 14.9800084303 4.93708356618
461 26 2 24.0010537424 14.6163387281 4.72188823129
462 26 2 24.9714423718 14.526224665 4.37128356104
463 26 2 25.8882582331 14.7243159167 3.93207199068
464 26 2 26.6780090914 15.1989942206 3.45913186686
465 26 2 27.2787838156 15.9134323004 3.01041566269
466 26 2 27.6458951536 16.8089504203 2.64166800703
467 26 2 27.7559526689 17.8103646401 2.40134494386
468 26 2 27.6089946186 18.8328393164 2.32619749601
469 27 1 7.69429393446 23.5898070954 21.5159988514
470 27 1 4.77199517616 22.7493175021 26.1084254581
471 27 2 7.68606365681 24.1096798405 21.3235271833
472 27 2 7.43780072301 25.0574357303 20.9876364865
473 27 2 6.90825302119 25.9072845233 20.7229961047
474 27 2 6.14626838736 26.5918540986 20.5698876941
475 27 2 5.22187969029 27.058836403 20.558427536
476 27 2 4.21992181561 27.2757549709 20.7058216449
477 27 2 3.23229954771 27.2329249322 21.0147975579
478 27 2 2.34961107867 26.944335721 21.4733557385
479 27 2 1.65289060428 26.4463760355 22.0558632519
480 27 2 1.2062226126 25.7945172567 22.7253900317
481 27 2 1.0509010223 25.0582576132 23.4370748018
482 27 2 1.20166552505 24.3147878935 24.1422138744
483 27 2 1.64535816371 23.6419560353 24.7927001571
484 27 2 2.3421225899 23.1111718192 25.3454077846
485 27 2 3.22903669687 22.7808983576 25.7661227457
486 27 2 4.22584753818 22.6913235818 26.0326612556
487 28 1 20.8567558722 29.9869280855 0.0166440291776
488 28 1 19.9758222323 27.7416743406 4.96835347841
489 28 2 20.7542117854 30.530747782 -0.0169059274258
490 28 2 20.3582013944 31.4870343702 0.0203768125552
491 28 2 19.7345133451 32.2945150899 0.198383484885
492 28 2 18.9463900172 32.8857531733 0.517753834003
493 28 2 18.0720609389 33.213020886 0.966243274409
494 28 2 17.1976127015 33.2526495833 1.51983890069
495 28 2 16.4091427566 33.0071869446 2.14494809921
496 28 2 15.7849122241 32.5051647697 2.80146028452
497 28 2 15.3882129276 31.7984985016 3.44640270425
498 28 2 15.2615987784 30.957755489 4.0378571108
499 28 2 15.4230072782 30.0657232567 4.53878032229
500 28 2 15.8641246391 29.2098639902 4.92038045456
501 28 2 16.5511435284 28.4743429573 5.16474110403
502 28 2 17.4278443747 27.9323574208 5.26645430505
503 28 2 18.420719397 27.6394652097 5.2331134289
504 28 2 19.4456723343 27.6285210045 5.08462110003
505 29 1 15.1922184338 28.1757373919 28.2024591419
506 29 1 11.295352986 24.5338082407 29.5762956192
507 29 2 15.1471298174 28.6718548195 28.4458010132
508 29 2 14.8405818854 29.5857984633 28.8245273688
509 29 2 14.265782968 30.4056593325 29.0893530301
510 29 2 13.4693758317 31.0518862493 29.2336607442
511 29 2 12.5182013127 31.4607535804 29.2618176425
512 29 2 11.4932062328 31.5901693914 29.1887772068
513 29 2 10.4820656521 31.4235118378 29.0387163624
514 29 2 9.571191888 30.9711441325 28.8428319166
515 29 2 8.83785862489 30.2694700098 28.6364971838
516 29 2 8.34315794784 29.3776157749 28.4560379505
517 29 2 8.12643221777 28.3720413461 28.3354216287
518 29 2 8.201688285 27.3395714577 28.3031613594
519 29 2 8.55632086089 26.3694821808 28.3797172352
520 29 2 9.15226140347 25.5453640216 28.5756315031
521 29 2 9.92944780403 24.9375032194 28.8905677109
522 29 2 10.8112986366 24.5964756383 29.3133413729
523 30 1 11.4404819391 22.9903219842 5.28891671083
524 30 1 12.1742576628 19.0220481004 1.54044895762
525 30 2 10.914007473 23.1451088278 5.3679510149
526 30 2 9.92853176306 23.4516604946 5.2809914157
527 30 2 9.01190905447 23.7420662091 4.89606856348
528 30 2 8.23855433798 23.9731701272 4.24706029496
529 30 2 7.66982470914 24.1072213569 3.39191402198
530 30 2 7.3484270897 24.1153146932 2.40736522217
531 30 2 7.2945257845 23.9800251298 1.38194352628
532 30 2 7.50390464332 23.6969960283 0.407903849307
533 30 2 7.94835133403 23.2753361967 -0.427182012477
534 30 2 8.57822870333 22.7367896831 -1.04840695039
535 30 2 9.32699886285 22.1137539557 -1.4003558127
536 30 2 10.1172876616 21.4463270951 -1.45215611579
537 30 2 10.8679368091 20.7786531292 -1.20029185936
538 30 2 11.5014008976 20.1548986081 -0.66892398574
539 30 2 11.9508151338 19.6152271255 0.0923117243144
540 30 2 12.1660896067 19.1921386827 1.01282861277
541 31 1 19.1798049029 31.8818872641 15.4558622733
542 31 1 18.2536349934 30.5500574294 10.1923013573
543 31 2 19.6244021011 31.6423369528 15.6846191996
544 31 2 20.3603800778 30.9978657426 16.0247538024
545 31 2 20.9252405787 30.1502750116 16.2124259592
546 31 2 21.2799245112 29.177195256 16.2160822402
547 31 2 21.404528936 28.1676944362 16.0209410012
548 31 2 21.3001210836 27.2141600427 15.630339629
549 31 2 20.9886410832 26.4038786103 15.0654303613
550 31 2 20.5109022709 25.8110801483 14.3632524054
551 31 2 19.9228713332 25.4901725843 13.5733560687
552 31 2 19.290567328 25.4707828549 12.7532865871
553 31 2 18.6840444997 25.7550566131 11.9633392723
554 31 2 18.1710073151 26.3174626671 11.2610640067
555 31 2 17.8106396654 27.1071199731 10.6960199665
556 31 2 17.6482106608 28.0524350937 10.3052586428
557 31 2 17.7109486607 29.0676274493 10.1099468517
558 31 2 18.0055595961 30.0605476289 10.1134375247
559 32 1 6.13893659601 18.203017622 18.6743949903
560 32 1 6.32278517677 16.8378294355 24.0072268685
561 32 2 6.58322497696 18.4757684873 18.4857271561
562 32 2 7.37585619641 19.1218063276 18.3212001675
563 32 2 8.06840544565 19.8854060013 18.4211468871
564 32 2 8.6118852569 20.6881587766 18.7857232819
565 32 2 8.97089481962 21.4480873848 19.3909661385
566 32 2 9.12684652167 22.0871176864 20.1909771455
567 32 2 9.07966008273 22.5381945938 21.12210621
568 32 2 8.8477698713 22.7513936826 22.1087527269
569 32 2 8.46644473839 22.6984714605 23.0702560564
570 32 2 7.98457350354 22.3754395683 23.9282471873
571 32 2 7.46020907417 21.8029282914 24.613791536
572 32 2 6.955277321 21.0243062504 25.0736718607
573 32 2 6.52993295958 20.1017276491 25.2752386481
574 32 2 6.23707686034 19.1104673448 25.2093858928
575 32 2 6.11753449696 18.1320600611 24.8913810475
576 32 2 6.19633498439 17.2468690569 24.3594734988
577 33 1 14.0961384918 20.1176820094 24.4914377694
578 33 1 16.2346465218 15.3526906254 26.2402303366
579 33 2 13.6131227423 20.0744399587 24.2227247955
580 33 2 12.825149985 19.8296916579 23.5967092413
581 33 2 12.2412033682 19.3806190913 22.8686718454
582 33 2 11.9057772731 18.7544561088 22.114942766
583 33 2 11.8407151393 17.9945771377 21.4141937816
584 33 2 12.0432185851 17.1565439005 20.8402678988
585 33 2 12.4861024604 16.3030413456 20.4554490677
586 33 2 13.1202725874 15.4981643434 20.3047854272
587 33 2 13.8792003575 14.8015758787 20.4119834761
588 33 2 14.6849863586 14.2630691785 20.7772473879
589 33 2 15.455460372 13.9180294007 21.3772604023
590 33 2 16.1116706247 13.7842085198 22.1673099877
591 33 2 16.5850797018 13.860107356 23.0853630817
592 33 2 16.8238112625 14.1251122149 24.05771998
593 33 2 16.7973782126 14.5413736849 25.0057315588